#LAMMPS data file

17628 atoms
1980 ellipsoids
52279 bonds
0 angles
0 dihedrals
0 impropers

42 atom types
39387 bond types
0 angle types

-646.1604815763969 646.1604815763969 xlo xhi
-646.1604815763969 646.1604815763969 ylo yhi
-646.1604815763969 646.1604815763969 zlo zhi

Atoms

1 1 -87.93684292390465 -130.06635962864286 -389.35403066893036 0  1 1 0
2 2 -86.47374292390465 -126.81015962864286 -390.9000306689304 0  1 1 1
3 17 -84.71054292390465 -123.83145962864288 -392.59383066893037 0  1 1 0
4 12 -83.57594292390465 -121.72665962864286 -395.5299306689304 0  1 1 1
5 6 -81.39326292390466 -123.54225962864287 -398.25143066893037 0  1 1 0
6 17 -77.78718292390465 -121.83285962864286 -398.7174306689304 0  1 1 0
7 1 -74.23912292390466 -122.60085962864287 -398.0422306689304 0  1 1 0
8 2 -73.47410292390465 -119.44675962864287 -395.2710306689304 0  1 1 1
9 12 -70.17792292390466 -117.24485962864287 -394.7064306689304 0  1 1 1
10 16 -68.52753292390466 -120.45155962864287 -393.4565306689304 0  1 1 0
11 17 -66.14945292390465 -119.89035962864287 -390.5214306689304 0  1 1 0
12 8 -64.57794292390466 -123.28065962864287 -389.38483066893036 0  1 1 0
13 8 -61.150642923904655 -123.45125962864287 -391.3566306689304 0  1 1 0
14 12 -60.39304292390465 -119.76095962864287 -389.9877306689304 0  1 1 1
15 1 -57.22224292390465 -119.11185962864286 -388.7700306689304 0  1 1 0
16 15 -57.23544292390466 -117.35145962864286 -385.6403306689304 0  1 1 0
17 2 -54.52364292390465 -114.91365962864288 -384.8742306689304 0  1 1 1
18 12 -56.50624292390465 -111.63655962864286 -386.0729306689304 0  1 1 1
19 6 -57.41014292390466 -109.88975962864286 -382.7683306689304 0  1 1 0
20 11 -59.78754292390465 -107.03025962864287 -382.0568306689304 0  1 1 0
21 1 -63.55453292390465 -106.98715962864287 -382.2596306689304 0  1 1 0
22 17 -65.21647292390466 -107.66155962864286 -378.7941306689304 0  1 1 0
23 12 -63.77016292390465 -109.32075962864286 -375.74803066893037 0  1 1 1
24 1 -60.237742923904655 -109.90625962864286 -376.6738306689304 0  1 1 0
25 1 -59.452842923904655 -106.26445962864287 -375.79853066893037 0  1 1 0
26 2 -55.58284292390465 -106.47245962864287 -375.2254306689304 0  1 1 1
27 12 -52.34404292390465 -105.91295962864287 -376.93123066893037 0  1 1 1
28 16 -53.70224292390465 -104.86665962864286 -380.2192306689304 0  1 1 0
29 1 -53.09674292390466 -100.97975962864287 -381.45523066893037 0  1 1 0
30 15 -50.39154292390465 -99.42235962864287 -383.5748306689304 0  1 1 0
31 1 -51.147842923904655 -96.09735962864286 -381.8612306689304 0  1 1 0
32 17 -47.33434292390466 -95.69745962864286 -381.7876306689304 0  1 1 0
33 8 -47.19094292390466 -95.06895962864286 -385.47653066893037 0  1 1 0
34 8 -49.22734292390466 -93.94325962864286 -388.3240306689304 0  1 1 0
35 20 -51.77084292390465 -91.34195962864287 -386.7427306689304 0  1 1 0
36 12 -50.97714292390465 -89.11945962864287 -383.5097306689304 0  1 1 1
37 12 -47.818442923904655 -87.03575962864286 -384.1995306689304 0  1 1 1
38 15 -45.62404292390465 -85.53089962864287 -386.9909306689304 0  1 1 0
39 9 -45.64344292390466 -82.18139962864286 -385.0464306689304 0  1 1 0.5
40 2 -48.78714292390465 -80.77580962864286 -383.7042306689304 0  1 1 1
41 39 -51.002742923904655 -77.79282962864286 -384.04743066893036 0  1 1 0
42 22 -52.282242923904654 -74.61213962864286 -381.7919306689304 0  1 1 1
43 35 -53.62954292390465 -75.58445762864287 -378.2051306689304 0  1 1 0
44 28 -57.267042923904654 -76.48074562864286 -378.2205306689304 0  1 1 0
45 37 -57.44974292390465 -77.43335962864286 -381.7682306689304 0  1 1 0
46 40 -56.41464292390465 -80.89038962864286 -381.67013066893037 0  1 1 0
47 21 -58.418142923904654 -80.88947962864286 -378.3830306689304 0  1 1 0
48 31 -61.507642923904655 -80.39740962864286 -380.2833306689304 0  1 1 0
49 22 -60.92854292390466 -83.19595962864287 -382.8603306689304 0  1 1 1
50 27 -59.886542923904656 -85.42224962864287 -379.6509306689304 0  1 1 -1
51 30 -63.34175292390465 -84.47922962864287 -378.1774306689304 0  1 1 0
52 22 -64.94641292390466 -85.53804962864287 -381.7285306689304 0  1 1 1
53 22 -62.85959292390466 -88.83775962864287 -381.58113066893037 0  1 1 1
54 39 -63.78727292390465 -90.04635962864286 -377.8298306689304 0  1 1 0
55 26 -67.44329292390465 -88.47665962864286 -378.4669306689304 0  1 1 0
56 32 -67.82545292390465 -91.16375962864286 -381.3202306689304 0  1 1 1
57 36 -66.19397292390465 -94.15445962864287 -379.9917306689304 0  1 1 0
58 37 -68.00400292390465 -96.16125962864287 -376.9692306689304 0  1 1 0
59 27 -65.52680292390465 -97.91045962864287 -375.0941306689304 0  1 1 -1
60 31 -65.37568292390465 -98.40005962864286 -371.2619206689304 0  1 1 0
61 31 -63.059842923904654 -95.55105962864286 -370.4614706689304 0  1 1 0
62 30 -61.718242923904654 -96.37415962864287 -367.2307006689304 0  1 1 0
63 22 -59.43114292390465 -99.25355962864286 -366.7608006689304 0  1 1 1
64 32 -61.242842923904654 -102.84875962864287 -366.0203906689304 0  1 1 1
65 31 -58.79974292390465 -104.05355962864286 -363.2775066689304 0  1 1 0
66 35 -58.37694292390465 -100.81195962864287 -361.9110966689304 0  1 1 0
67 34 -62.202242923904656 -100.55125962864287 -361.45941966893037 0  1 1 0
68 26 -62.555032923904655 -104.01235962864287 -360.1908106689304 0  1 1 0
69 22 -59.587942923904656 -102.98015962864287 -357.4699206689304 0  1 1 1
70 31 -61.727442923904654 -100.13755962864286 -356.7272006689304 0  1 1 0
71 40 -65.01010292390465 -101.51145962864287 -356.2654106689304 0  1 1 0
72 22 -63.55406292390465 -104.09255962864287 -353.8415306689304 0  1 1 1
73 27 -62.328242923904654 -101.28405962864286 -351.66743066893036 0  1 1 -1
74 30 -65.52932292390466 -99.47875962864286 -351.6206306689304 0  1 1 0
75 21 -67.52352292390465 -102.29555962864286 -350.76433066893037 0  1 1 0
76 26 -65.40519292390465 -103.85255962864287 -348.0541306689304 0  1 1 0
77 24 -65.71173292390465 -100.45925962864287 -346.0160306689304 0  1 1 -1
78 34 -69.42928292390465 -101.15535962864287 -345.6994306689304 0  1 1 0
79 32 -69.60922292390465 -105.11005962864286 -345.3569306689304 0  1 1 1
80 37 -67.28865292390465 -108.20335962864286 -344.7940306689304 0  1 1 0
81 24 -67.17807292390465 -111.53365962864287 -346.99123066893037 0  1 1 -1
82 31 -69.20245292390466 -110.56985962864286 -350.1938306689304 0  1 1 0
83 22 -68.28473292390466 -111.85465962864286 -354.0842006689304 0  1 1 1
84 34 -69.56571292390466 -109.76825962864287 -357.3000506689304 0  1 1 0
85 26 -70.29230292390466 -111.47225962864286 -360.4831306689304 0  1 1 0
86 36 -68.35693292390465 -110.13095962864287 -363.59554066893037 0  1 1 0
87 36 -71.68104692390466 -108.86875962864286 -364.6531406689304 0  1 1 0
88 21 -72.01274792390466 -106.74425962864287 -361.2263406689304 0  1 1 0
89 40 -68.83168292390465 -105.07905962864287 -361.31456066893037 0  1 1 0
90 33 -69.41680292390465 -104.27245962864286 -364.9527006689304 0  1 1 0
91 21 -72.94571692390466 -102.76395962864287 -364.2590606689304 0  1 1 0
92 31 -71.25806592390465 -100.55345962864287 -361.8029246689304 0  1 1 0
93 26 -68.62290292390466 -99.67235962864287 -364.5431306689304 0  1 1 0
94 27 -71.18400292390466 -98.58915962864286 -367.1533206689304 0  1 1 -1
95 21 -73.13067692390466 -96.44285962864286 -364.5839806689304 0  1 1 0
96 36 -69.48613292390465 -95.15515962864286 -363.2103266689304 0  1 1 0
97 27 -68.73183292390465 -93.91295962864287 -366.4374206689304 0  1 1 -1
98 21 -72.06757992390466 -92.82865962864287 -367.7302706689304 0  1 1 0
99 39 -72.14944392390466 -90.92115962864287 -364.16205066893036 0  1 1 0
100 31 -68.99085292390465 -88.88615962864287 -364.55470066893037 0  1 1 0
101 40 -69.74012292390465 -88.04645962864286 -368.2711006689304 0  1 1 0
102 21 -73.07512792390466 -86.60495962864286 -367.6936306689304 0  1 1 0
103 31 -71.20342292390465 -84.69863962864287 -364.5834906689304 0  1 1 0
104 34 -68.62559292390465 -83.24858962864286 -366.9782706689304 0  1 1 0
105 27 -71.17450292390465 -82.05969962864286 -369.21597066893037 0  1 1 -1
106 24 -72.74720292390465 -80.13501962864287 -366.6787806689304 0  1 1 -1
107 37 -69.43506292390465 -79.12654962864286 -365.0276806689304 0  1 1 0
108 23 -68.56809292390466 -77.42146962864287 -368.5167106689304 0  1 1 0
109 31 -71.84381492390466 -75.76801662864287 -368.6639906689304 0  1 1 0
110 25 -71.24426892390466 -74.28475962864286 -365.2367706689304 0  1 1 0
111 21 -67.81007292390466 -73.04056962864287 -366.4816306689304 0  1 1 0
112 30 -69.53924292390465 -71.09532962864287 -369.2037306689304 0  1 1 0
113 29 -71.50942092390466 -69.72431962864286 -366.08129066893036 0  1 1 0.5
114 21 -68.13911292390465 -68.71158962864287 -365.06875066893036 0  1 1 0
115 32 -67.24859292390465 -67.52434962864287 -368.7150406689304 0  1 1 1
116 22 -64.27799292390465 -69.86532962864287 -369.0976406689304 0  1 1 1
117 40 -63.082072923904654 -72.69487962864287 -371.2332206689304 0  1 1 0
118 37 -61.30444292390465 -74.15619962864287 -368.5394206689304 0  1 1 0
119 30 -62.930902923904654 -76.25110362864287 -365.6114906689304 0  1 1 0
120 33 -62.12724292390465 -76.39697562864286 -362.1083856689304 0  1 1 0
121 35 -63.24377292390466 -78.16774962864287 -358.8204906689304 0  1 1 0
122 32 -65.58628292390465 -75.54844762864286 -358.06472066893036 0  1 1 1
123 24 -68.07798292390466 -75.92862222864287 -361.07647066893037 0  1 1 -1
124 30 -68.21395292390466 -79.66147962864287 -359.8121606689304 0  1 1 0
125 26 -69.52326292390465 -78.95490962864287 -356.3059006689304 0  1 1 0
126 31 -71.98127692390466 -76.11078062864287 -357.4075806689304 0  1 1 0
127 21 -73.14994292390466 -78.51810962864286 -360.1902706689304 0  1 1 0
128 22 -73.77031292390465 -81.44154962864286 -358.0054306689304 0  1 1 1
129 22 -75.39085292390466 -79.10658962864287 -355.1615106689304 0  1 1 1
130 30 -77.69040292390466 -77.51796962864286 -357.9986806689304 0  1 1 0
131 22 -78.66091292390465 -81.09671962864286 -359.3245306689304 0  1 1 1
132 28 -79.29539292390466 -81.95628962864286 -355.6053906689304 0  1 1 0
133 27 -76.90058292390465 -84.62168962864287 -355.1069606689304 0  1 1 -1
134 22 -75.32511292390465 -83.18815962864286 -352.3786206689304 0  1 1 1
135 21 -76.99886292390465 -81.95488962864286 -348.9865306689304 0  1 1 0
136 16 -49.033142923904656 -81.73630962864287 -365.9596706689304 0  1 1 0
137 8 -45.678442923904655 -83.97991962864286 -365.56911066893036 0  1 1 0
138 2 -42.31344292390465 -83.14214962864287 -363.7618706689304 0  1 1 1
139 8 -39.091942923904654 -81.39384962864287 -364.8900606689304 0  1 1 0
140 12 -38.923942923904654 -77.85898962864286 -363.7274206689304 0  1 1 1
141 8 -41.436342923904654 -78.75048962864287 -360.8187406689304 0  1 1 0
142 8 -39.225142923904656 -76.79926362864286 -358.57967066893036 0  1 1 0
143 12 -37.94564292390466 -79.62760962864287 -356.6962306689304 0  1 1 1
144 8 -36.19184292390465 -83.13661962864286 -358.0940606689304 0  1 1 0
145 11 -36.49454292390465 -85.63752962864287 -360.9383406689304 0  1 1 0
146 8 -32.823342923904654 -86.12725962864286 -360.3861606689304 0  1 1 0
147 12 -31.832642923904658 -89.58745962864286 -358.9457206689304 0  1 1 1
148 8 -35.483242923904655 -90.54795962864287 -358.1110506689304 0  1 1 0
149 8 -38.00684292390466 -88.60495962864286 -356.6655006689304 0  1 1 0
150 1 -40.03134292390465 -91.95915962864287 -355.9509506689304 0  1 1 0
151 12 -38.73834292390465 -95.30055962864287 -357.63548066893037 0  1 1 1
152 2 -41.25324292390465 -96.08595962864287 -360.21901066893037 0  1 1 1
153 9 -44.51184292390465 -95.49805962864286 -358.8410006689304 0  1 1 0.5
154 2 -47.02274292390466 -95.30955962864286 -361.6006766689304 0  1 1 1
155 12 -48.70294292390466 -98.46855962864286 -361.7048206689304 0  1 1 1
156 20 -50.39624292390465 -99.61345962864286 -358.60896066893037 0  1 1 0
157 11 -53.86994292390465 -101.06535962864287 -357.46300066893036 0  1 1 0
158 2 -54.48654292390465 -101.33425962864287 -353.8465806689304 0  1 1 1
159 4 -55.94114292390465 -98.83765962864287 -351.25663066893037 0  1 1 -1
160 3 -58.99294292390465 -97.51345962864286 -352.5031106689304 0  1 1 0
161 30 -59.54184292390465 -94.43205962864286 -355.1428506689304 0  1 1 0
162 26 -56.11654292390465 -93.21625962864286 -355.8837306689304 0  1 1 0
163 28 -55.48424292390465 -95.91745962864286 -358.3877706689304 0  1 1 0
164 30 -58.45174292390465 -94.30945962864287 -360.8749106689304 0  1 1 0
165 37 -56.17664292390465 -92.92985962864287 -363.6371006689304 0  1 1 0
166 32 -55.46774292390465 -89.62355962864287 -364.9878606689304 0  1 1 1
167 35 -55.15804292390465 -89.80885962864286 -368.7595906689304 0  1 1 0
168 21 -58.37524292390465 -92.00625962864287 -368.71374066893037 0  1 1 0
169 30 -60.18564292390465 -89.05395962864287 -366.8289306689304 0  1 1 0
170 22 -58.91254292390465 -86.53415962864287 -369.4714306689304 0  1 1 1
171 22 -60.267942923904656 -88.82405962864287 -372.3203306689304 0  1 1 1
172 31 -63.55822292390465 -89.02035962864286 -369.9096206689304 0  1 1 0
173 21 -63.929382923904654 -85.36516962864286 -369.8050506689304 0  1 1 0
174 22 -62.993092923904655 -85.07378962864287 -373.6326306689304 0  1 1 1
175 22 -65.82195292390466 -87.59265962864286 -373.8230306689304 0  1 1 1
176 28 -67.83897292390465 -84.99885962864286 -371.9212506689304 0  1 1 0
177 28 -67.20835292390466 -82.21177962864287 -374.55713066893037 0  1 1 0
178 40 -64.39359292390465 -80.48159962864287 -372.1609606689304 0  1 1 0
179 32 -61.96884292390465 -78.49298962864286 -374.0351306689304 0  1 1 1
180 22 -59.550442923904654 -77.05986962864287 -371.4275206689304 0  1 1 1
181 30 -59.11414292390465 -78.87959962864286 -368.0156006689304 0  1 1 0
182 36 -57.604142923904654 -77.59281962864287 -364.9725106689304 0  1 1 0
183 28 -54.746942923904655 -80.07714962864287 -363.1704116689304 0  1 1 0
184 31 -56.901042923904654 -79.85609962864287 -360.0054306689304 0  1 1 0
185 30 -59.681242923904655 -81.92918962864286 -361.6311216689304 0  1 1 0
186 39 -58.10064292390466 -85.64693962864287 -360.8726006689304 0  1 1 0
187 27 -58.14774292390465 -85.64123962864286 -357.0965906689304 0  1 1 -1
188 27 -61.43824292390465 -83.90589962864287 -357.0818106689304 0  1 1 -1
189 37 -62.827242923904656 -86.44895962864287 -359.47554066893036 0  1 1 0
190 22 -61.966342923904655 -89.21775962864287 -357.3983506689304 0  1 1 1
191 28 -63.49483292390465 -87.70995962864286 -354.4784306689304 0  1 1 0
192 40 -66.98436292390465 -87.04535962864287 -356.4623206689304 0  1 1 0
193 31 -66.75461292390466 -90.58145962864286 -357.89640066893037 0  1 1 0
194 32 -66.45800292390466 -92.28915962864286 -354.5622306689304 0  1 1 1
195 40 -69.54191292390465 -90.61135962864287 -352.8332906689304 0  1 1 0
196 34 -71.25056392390465 -92.00025962864287 -355.9016306689304 0  1 1 0
197 31 -70.18496292390465 -95.50635962864287 -356.2186206689304 0  1 1 0
198 27 -70.48426292390465 -95.79125962864286 -352.1459306689304 0  1 1 -1
199 23 -74.06968292390465 -94.78175962864287 -352.5393606689304 0  1 1 0
200 40 -74.93028292390466 -97.44015962864287 -355.1567506689304 0  1 1 0
201 30 -72.69504392390465 -100.19205962864287 -354.0656506689304 0  1 1 0
202 22 -74.28888292390465 -99.74925962864287 -350.2287306689304 0  1 1 1
203 24 -77.60909292390465 -100.24075962864286 -351.8599306689304 0  1 1 -1
204 21 -76.61767292390465 -103.02555962864287 -354.1927906689304 0  1 1 0
205 40 -75.10231292390465 -104.92465962864287 -350.8993306689304 0  1 1 0
206 37 -78.03614292390465 -104.07985962864286 -348.7498306689304 0  1 1 0
207 39 -80.14057292390466 -105.50665962864286 -351.7670306689304 0  1 1 0
208 37 -78.00157292390466 -108.66125962864287 -352.1302306689304 0  1 1 0
209 27 -78.84443292390465 -109.47425962864287 -348.3883306689304 0  1 1 -1
210 29 -82.36854292390466 -108.71525962864287 -348.9896306689304 0  1 1 0.5
211 21 -82.18002292390466 -111.14505962864287 -351.7790306689304 0  1 1 0
212 32 -80.57572292390465 -113.90705962864287 -349.7790306689304 0  1 1 1
213 22 -77.05377292390466 -113.50945962864287 -351.25393066893037 0  1 1 1
214 32 -73.41662292390465 -112.98005962864286 -350.5746306689304 0  1 1 1
215 37 -72.63321692390466 -112.52005962864287 -354.3170106689304 0  1 1 0
216 40 -73.95268292390466 -109.16415962864286 -355.6393806689304 0  1 1 0
217 37 -75.91203292390466 -109.44435962864287 -358.8949506689304 0  1 1 0
218 21 -76.49298292390465 -106.86295962864287 -361.6309056689304 0  1 1 0
219 33 -80.06892292390465 -107.03425962864287 -360.8383706689304 0  1 1 0
220 24 -79.55233292390466 -105.59225962864286 -357.3726306689304 0  1 1 -1
221 40 -77.42266292390465 -102.88825962864287 -359.1226306689304 0  1 1 0
222 40 -80.37596292390465 -102.25695962864287 -361.15838066893036 0  1 1 0
223 39 -82.44994292390466 -101.96535962864286 -357.7962406689304 0  1 1 0
224 21 -79.76142292390466 -99.38345962864287 -356.5840906689304 0  1 1 0
225 31 -79.92291292390465 -97.32715962864287 -359.8503406689304 0  1 1 0
226 32 -83.52524292390466 -96.95555962864287 -359.8841406689304 0  1 1 1
227 22 -84.10844292390465 -95.54375962864287 -356.1011106689304 0  1 1 1
228 26 -81.07100292390466 -93.29505962864286 -356.7951606689304 0  1 1 0
229 28 -82.35474292390465 -91.80705962864286 -359.7990206689304 0  1 1 0
230 22 -79.65504292390466 -93.12605962864286 -362.43719866893036 0  1 1 1
231 37 -81.65006292390466 -96.10505962864286 -363.9015306689304 0  1 1 0
232 31 -79.43449292390466 -98.97635962864287 -365.5079006689304 0  1 1 0
233 39 -80.60769292390465 -100.42635962864287 -368.9007806689304 0  1 1 0
234 28 -79.48171292390465 -103.56025962864287 -370.75314066893037 0  1 1 0
235 34 -78.63007292390465 -105.34765962864287 -367.2838206689304 0  1 1 0
236 28 -82.01400292390466 -106.84465962864286 -366.34383066893037 0  1 1 0
237 28 -85.44274292390466 -107.62765962864287 -367.4199406689304 0  1 1 0
238 16 -114.12214292390465 -116.94935962864287 -324.8737306689304 0  1 1 0
239 8 -117.87174292390466 -116.82325962864286 -324.5017306689304 0  1 1 0
240 2 -120.79884292390466 -115.72385962864286 -322.0445306689304 0  1 1 1
241 8 -123.62044292390465 -113.39955962864286 -323.1779306689304 0  1 1 0
242 12 -125.84004292390466 -111.07995962864287 -325.3346306689304 0  1 1 1
243 6 -124.69714292390466 -107.28495962864287 -325.7156306689304 0  1 1 0
244 8 -123.79974292390466 -103.97905962864286 -327.43373066893037 0  1 1 0
245 8 -123.27804292390465 -100.71285962864286 -329.0566306689304 0  1 1 0
246 12 -119.54684292390465 -99.46365962864286 -329.3035306689304 0  1 1 1
247 17 -118.50284292390465 -101.78555962864286 -326.1942306689304 0  1 1 0
248 2 -115.62824292390465 -102.33415962864287 -323.59383066893037 0  1 1 1
249 1 -112.32864292390465 -103.30755962864286 -322.18643066893037 0  1 1 0
250 12 -111.58964292390465 -105.66225962864286 -318.9809306689304 0  1 1 1
251 1 -109.10604292390465 -108.43885962864286 -319.0718306689304 0  1 1 0
252 12 -105.83604292390466 -109.53635962864286 -320.3693306689304 0  1 1 1
253 17 -104.17634292390466 -106.07365962864287 -319.9039306689304 0  1 1 0
254 2 -101.77794292390465 -103.46125962864286 -321.5326306689304 0  1 1 1
255 16 -102.59684292390466 -105.97205962864287 -324.43803066893037 0  1 1 0
256 16 -98.72604292390466 -106.54305962864287 -324.4803306689304 0  1 1 0
257 2 -97.61884292390465 -104.46955962864287 -327.4221306689304 0  1 1 1
258 21 -93.64134292390466 -103.91065962864286 -327.4544306689304 0  1 1 0
259 28 -92.51444292390465 -101.08825962864287 -325.06643066893037 0  1 1 0
260 31 -93.82174292390465 -98.65315962864287 -327.4385306689304 0  1 1 0
261 26 -95.50194292390465 -95.15235962864287 -327.2431306689304 0  1 1 0
262 34 -96.75614292390466 -94.94695962864287 -330.7144306689304 0  1 1 0
263 35 -99.80654292390466 -96.56805962864287 -332.4052306689304 0  1 1 0
264 40 -98.84554292390465 -99.97335962864287 -333.7431306689304 0  1 1 0
265 28 -102.29414292390466 -101.35835962864286 -334.50733066893036 0  1 1 0
266 22 -103.08844292390465 -98.03825962864286 -336.4126306689304 0  1 1 1
267 40 -99.91994292390466 -98.70405962864287 -338.31373066893036 0  1 1 0
268 29 -100.75474292390466 -102.26835962864287 -338.9884306689304 0  1 1 0.5
269 22 -104.09704292390465 -100.93605962864287 -340.6797306689304 0  1 1 1
270 31 -101.81514292390466 -98.43905962864287 -342.5447306689304 0  1 1 0
271 31 -99.83744292390466 -101.25285962864287 -343.9154306689304 0  1 1 0
272 22 -102.96854292390465 -103.42975962864287 -344.5584306689304 0  1 1 1
273 32 -105.07164292390465 -101.12005962864286 -346.3740306689304 0  1 1 1
274 28 -102.23064292390465 -98.99125962864287 -348.3116306689304 0  1 1 0
275 23 -101.93664292390466 -101.41065962864286 -351.35583066893037 0  1 1 0
276 39 -98.45954292390465 -102.43465962864286 -350.2208306689304 0  1 1 0
277 21 -98.94144292390465 -106.21565962864287 -350.5690306689304 0  1 1 0
278 27 -101.13464292390465 -109.36625962864287 -350.6171306689304 0  1 1 -1
279 22 -100.40814292390465 -109.90365962864286 -346.8806306689304 0  1 1 1
280 40 -98.64384292390466 -108.15695962864287 -343.9497306689304 0  1 1 0
281 28 -96.97884292390465 -110.03985962864286 -341.0556306689304 0  1 1 0
282 21 -97.46844292390466 -108.48545962864287 -337.6559306689304 0  1 1 0
283 28 -93.94744292390465 -108.05685962864287 -336.7011306689304 0  1 1 0
284 21 -93.53264292390466 -105.43995962864287 -339.3510306689304 0  1 1 0
285 35 -96.02724292390465 -102.88135962864287 -338.04153066893036 0  1 1 0
286 40 -94.31684292390466 -103.01375962864287 -334.5465306689304 0  1 1 0
287 39 -90.62144292390465 -102.57765962864286 -336.0006306689304 0  1 1 0
288 31 -92.18854292390465 -99.77825962864287 -338.1265306689304 0  1 1 0
289 21 -93.97884292390465 -97.76585962864286 -335.3312306689304 0  1 1 0
290 21 -90.86334292390465 -98.19315962864286 -333.2191306689304 0  1 1 0
291 40 -88.95104292390465 -96.23515962864286 -336.2293306689304 0  1 1 0
292 31 -91.65084292390466 -93.32925962864286 -336.6145306689304 0  1 1 0
293 27 -91.47324292390465 -92.95485962864286 -332.9222306689304 0  1 1 -1
294 39 -87.69434292390466 -92.77515962864287 -332.9771306689304 0  1 1 0
295 31 -87.75724292390466 -90.12085962864286 -335.8273306689304 0  1 1 0
296 37 -90.28734292390465 -88.32495962864286 -333.8799306689304 0  1 1 0
297 21 -88.29974292390466 -88.16215962864287 -330.7580306689304 0  1 1 0
298 27 -84.99914292390466 -87.32935962864286 -332.9610306689304 0  1 1 -1
299 30 -86.24914292390466 -84.12144962864286 -334.3941306689304 0  1 1 0
300 31 -88.23684292390465 -83.35213962864286 -331.1653306689304 0  1 1 0
301 27 -85.37404292390465 -83.31522962864287 -328.7338306689304 0  1 1 -1
302 31 -83.52314292390466 -80.79158962864287 -331.3009306689304 0  1 1 0
303 21 -86.98104292390465 -78.68476962864287 -331.84903066893037 0  1 1 0
304 28 -87.52414292390465 -78.46046962864287 -327.8646306689304 0  1 1 0
305 23 -83.94954292390466 -77.39150962864286 -327.4462306689304 0  1 1 0
306 21 -84.20724292390466 -74.67898962864287 -330.0884306689304 0  1 1 0
307 21 -87.56454292390465 -73.45244962864287 -328.4230306689304 0  1 1 0
308 22 -85.98624292390465 -73.24061962864286 -324.6894306689304 0  1 1 1
309 24 -83.16514292390465 -71.35937962864287 -326.2619306689304 0  1 1 -1
310 23 -85.70714292390466 -69.28714962864287 -328.2439306689304 0  1 1 0
311 32 -87.04844292390466 -68.63141962864286 -324.65563066893037 0  1 1 1
312 32 -90.21264292390465 -70.37817962864287 -325.8604306689304 0  1 1 1
313 37 -92.24944292390465 -73.18902962864287 -324.0151306689304 0  1 1 0
314 22 -94.62354292390465 -74.15346962864287 -326.79263066893037 0  1 1 1
315 30 -93.00864292390466 -75.70017362864287 -329.8862306689304 0  1 1 0
316 30 -93.64444292390465 -74.01509962864287 -333.0219306689304 0  1 1 0
317 35 -92.90784292390465 -74.83639962864287 -336.70433066893037 0  1 1 0
318 22 -89.91894292390465 -72.30130962864287 -336.76773066893037 0  1 1 1
319 29 -88.19944292390466 -74.78748962864286 -334.3671306689304 0  1 1 0.5
320 31 -89.04284292390466 -77.66937962864287 -336.7019306689304 0  1 1 0
321 26 -87.40724292390465 -75.77617362864287 -339.3785306689304 0  1 1 0
322 31 -84.01184292390465 -75.75737362864287 -337.39343066893036 0  1 1 0
323 21 -84.41564292390466 -78.94033962864286 -335.8802306689304 0  1 1 0
324 40 -84.10174292390465 -80.48728962864287 -339.5755306689304 0  1 1 0
325 22 -80.66168292390465 -78.75894962864287 -340.1225306689304 0  1 1 1
326 23 -79.16463292390465 -78.65908962864286 -336.9477306689304 0  1 1 0
327 24 -78.11170292390466 -82.48745962864287 -337.34383066893037 0  1 1 -1
328 27 -76.15748292390465 -83.49884962864287 -340.2291306689304 0  1 1 -1
329 27 -78.04931292390465 -86.67985962864287 -340.9065306689304 0  1 1 -1
330 31 -81.46905292390466 -84.86171962864287 -340.3966306689304 0  1 1 0
331 23 -80.21129292390465 -82.34804962864287 -343.0272306689304 0  1 1 0
332 32 -79.55551292390466 -84.93390962864287 -345.4554306689304 0  1 1 1
333 31 -83.50614292390466 -86.09575962864287 -344.8874306689304 0  1 1 0
334 31 -85.14854292390466 -82.77081962864287 -344.6690306689304 0  1 1 0
335 28 -82.69444292390466 -79.84157962864286 -345.58863066893036 0  1 1 0
336 22 -85.17584292390465 -78.14810962864287 -347.8455306689304 0  1 1 1
337 40 -88.41164292390465 -79.97132962864286 -347.52523066893036 0  1 1 0
338 37 -91.03984292390466 -77.08731962864286 -347.2666306689304 0  1 1 0
339 30 -92.20004292390465 -76.52134762864287 -343.7097306689304 0  1 1 0
340 21 -95.34504292390466 -74.36040962864287 -343.4332306689304 0  1 1 0
341 26 -94.62794292390466 -71.14232962864287 -341.1715306689304 0  1 1 0
342 28 -91.16164292390465 -72.44596962864287 -341.2315306689304 0  1 1 0
343 28 -89.61964292390465 -69.87404962864287 -343.4537306689304 0  1 1 0
344 40 -85.82794292390466 -70.32008962864286 -343.7997306689304 0  1 1 0
345 31 -82.96574292390466 -69.73168962864287 -341.1401306689304 0  1 1 0
346 35 -80.73517292390466 -66.81107962864287 -340.9230306689304 0  1 1 0
347 23 -77.71062292390465 -67.47736962864286 -343.0440306689304 0  1 1 0
348 30 -75.51993292390465 -65.24465962864286 -344.9806306689304 0  1 1 0
349 26 -76.20155292390466 -61.325159628642865 -345.53403066893037 0  1 1 0
350 36 -76.38816292390466 -60.757959628642865 -349.4916306689304 0  1 1 0
351 20 -73.16773092390466 -62.17005962864287 -350.70953066893037 0  1 1 0
352 11 -70.36073292390465 -61.638059628642864 -347.8738306689304 0  1 1 0
353 11 -67.69224292390466 -58.558859628642864 -348.4854306689304 0  1 1 0
354 15 -66.29542292390465 -56.68245962864287 -345.4463306689304 0  1 1 0
355 12 -65.26704292390465 -57.486559628642866 -341.8165306689304 0  1 1 1
356 12 -64.36330292390466 -53.90635962864287 -340.7421306689304 0  1 1 1
357 17 -63.17407292390465 -51.05235962864286 -338.5926306689304 0  1 1 0
358 7 -59.11604292390466 -51.43145962864287 -339.4982306689304 0  1 1 -1
359 16 -57.510642923904655 -51.040259628642865 -343.2571306689304 0  1 1 0
360 16 -53.79454292390466 -50.36245962864287 -344.9599306689304 0  1 1 0
361 12 -51.27344292390465 -53.118359628642864 -344.7791306689304 0  1 1 1
362 16 -50.08924292390465 -52.85375962864286 -347.93623066893036 0  1 1 0
363 12 -52.20984292390465 -52.03075962864287 -350.9739306689304 0  1 1 1
364 16 -52.08054292390466 -51.93545962864287 -354.7435206689304 0  1 1 0
365 12 -49.54884292390466 -51.78225962864286 -357.6000606689304 0  1 1 1
366 1 -106.14804292390465 -94.15255962864286 -311.3883306689304 0  1 1 0
367 12 -106.60084292390465 -91.98055962864287 -308.1999306689304 0  1 1 1
368 16 -103.58154292390465 -89.70495962864287 -308.63933066893037 0  1 1 0
369 1 -100.34264292390466 -88.10325962864286 -307.8593306689304 0  1 1 0
370 15 -101.09014292390465 -86.91115962864286 -304.6378306689304 0  1 1 0
371 1 -101.79924292390466 -83.98980962864286 -301.7925306689304 0  1 1 0
372 15 -105.14264292390465 -83.72904962864287 -303.5121306689304 0  1 1 0
373 12 -106.38474292390465 -80.33254962864287 -302.80693066893036 0  1 1 1
374 12 -108.44144292390465 -79.42171962864286 -305.6232306689304 0  1 1 1
375 8 -109.31624292390465 -76.87053462864287 -308.5498306689304 0  1 1 0
376 16 -112.97444292390466 -76.59694062864287 -309.2571306689304 0  1 1 0
377 12 -116.10674292390465 -77.04278962864286 -311.0556306689304 0  1 1 1
378 12 -117.51274292390465 -80.43490962864287 -310.16403066893037 0  1 1 1
379 1 -121.05314292390466 -80.01272962864286 -311.4447306689304 0  1 1 0
380 20 -122.65404292390465 -78.16536962864286 -314.5324306689304 0  1 1 0
381 17 -120.70904292390466 -77.51096962864287 -317.7682306689304 0  1 1 0
382 12 -117.44234292390465 -79.37947962864287 -318.10223066893036 0  1 1 1
383 17 -119.46944292390465 -82.60865962864287 -319.2158306689304 0  1 1 0
384 6 -120.87614292390465 -83.08410962864286 -322.6360306689304 0  1 1 0
385 12 -120.02554292390465 -81.83663962864287 -325.8637306689304 0  1 1 1
386 12 -122.35984292390465 -83.86999962864287 -328.0187306689304 0  1 1 1
387 4 -121.74434292390465 -86.87835962864287 -330.4000306689304 0  1 1 -1
388 8 -121.15434292390466 -90.55445962864286 -330.2975306689304 0  1 1 0
389 12 -124.72254292390465 -90.27275962864286 -331.5974306689304 0  1 1 1
390 12 -123.46604292390465 -88.57845962864286 -334.7293306689304 0  1 1 1
391 22 -122.13154292390465 -88.56875962864287 -338.1237306689304 0  1 1 1
392 22 -119.72604292390466 -86.33485962864286 -339.6731306689304 0  1 1 1
393 32 -118.37184292390465 -85.52836962864286 -343.0949306689304 0  1 1 1
394 37 -115.04514292390465 -87.42385962864287 -343.7250306689304 0  1 1 0
395 22 -112.62464292390464 -86.97135962864286 -340.4670306689304 0  1 1 1
396 32 -109.82944292390465 -89.55225962864287 -339.84723066893037 0  1 1 1
397 27 -106.49564292390465 -88.50265962864287 -339.3477306689304 0  1 1 -1
398 36 -103.30424292390465 -87.96595962864286 -337.2789306689304 0  1 1 0
399 39 -100.40854292390466 -88.98575962864287 -335.1482306689304 0  1 1 0
400 21 -100.84224292390465 -85.82605962864287 -333.0721306689304 0  1 1 0
401 30 -101.59184292390465 -87.36735962864287 -329.8539306689304 0  1 1 0
402 39 -98.58614292390465 -89.87535962864287 -329.9773306689304 0  1 1 0
403 40 -96.51634292390466 -86.67605962864286 -331.3546306689304 0  1 1 0
404 39 -97.19184292390466 -85.13124962864286 -327.8938306689304 0  1 1 0