#LAMMPS data file

17628 atoms
1980 ellipsoids
55615 bonds
0 angles
0 dihedrals
0 impropers

42 atom types
42723 bond types
0 angle types

-493.3285652721293 493.3285652721293 xlo xhi
-493.3285652721293 493.3285652721293 ylo yhi
-493.3285652721293 493.3285652721293 zlo zhi

Atoms

1 1 -80.17589709601418 -45.874665293200394 -300.8276101814195 0  1 1 0
2 2 -76.57890709601419 -45.3597652932004 -299.85811018141953 0  1 1 1
3 17 -73.40150709601419 -45.186965293200394 -297.77041018141955 0  1 1 0
4 12 -70.36214709601418 -44.8272652932004 -299.8276101814195 0  1 1 1
5 6 -70.0178470960142 -41.075265293200395 -299.99371018141954 0  1 1 0
6 17 -71.34474709601419 -38.8133652932004 -303.17671018141954 0  1 1 0
7 1 -73.51639709601419 -36.070965293200395 -301.43031018141954 0  1 1 0
8 2 -73.5840170960142 -34.388865293200396 -297.97851018141955 0  1 1 1
9 12 -74.7892970960142 -37.2407652932004 -295.5523501814195 0  1 1 1
10 16 -72.86484709601419 -39.9214652932004 -294.1079601814195 0  1 1 0
11 17 -71.80054709601418 -38.0179652932004 -291.1633001814195 0  1 1 0
12 8 -68.95174709601419 -35.923265293200394 -291.3732901814195 0  1 1 0
13 8 -66.26204709601419 -37.768565293200396 -290.16695018141957 0  1 1 0
14 12 -63.98904709601419 -34.93286529320039 -291.44411018141955 0  1 1 1
15 1 -65.84284709601418 -31.4002652932004 -290.7398501814195 0  1 1 0
16 15 -66.21974709601419 -27.883665293200394 -292.2268601814195 0  1 1 0
17 2 -67.43934709601419 -25.542265293200394 -289.6419801814195 0  1 1 1
18 12 -68.45384709601419 -22.194865293200394 -287.50300218141956 0  1 1 1
19 6 -69.53844709601418 -19.909765293200394 -290.7203701814195 0  1 1 0
20 11 -68.5105470960142 -17.782265293200396 -293.94883018141957 0  1 1 0
21 1 -65.74504709601419 -16.2294652932004 -291.5445801814195 0  1 1 0
22 17 -62.12234709601419 -16.571665293200397 -292.52187018141956 0  1 1 0
23 12 -59.83614709601419 -18.7506652932004 -293.84486018141956 0  1 1 1
24 1 -56.407147096014185 -17.813965293200397 -294.79722018141956 0  1 1 0
25 1 -57.39314709601419 -14.672265293200399 -296.64124018141956 0  1 1 0
26 2 -53.72684709601418 -14.834365293200397 -298.31031018141954 0  1 1 1
27 12 -54.55384709601419 -16.3285652932004 -301.3629101814195 0  1 1 1
28 16 -53.57094709601419 -15.174865293200396 -304.5946101814195 0  1 1 0
29 1 -51.65064709601419 -12.076365293200398 -302.87011018141953 0  1 1 0
30 15 -50.16934709601419 -10.197665293200396 -306.06161018141955 0  1 1 0
31 1 -46.98664709601419 -8.990265293200396 -304.68321018141955 0  1 1 0
32 17 -47.68164709601419 -7.0629652932003975 -301.63861018141955 0  1 1 0
33 8 -45.673447096014186 -6.055465293200397 -298.52491018141956 0  1 1 0
34 8 -42.45284709601419 -5.095465293200396 -300.2406101814195 0  1 1 0
35 20 -40.96564709601419 -2.496765293200397 -302.79331018141954 0  1 1 0
36 12 -42.91344709601419 1.0797747067996024 -303.13211018141953 0  1 1 1
37 12 -42.53824709601419 4.200674706799603 -300.84241018141955 0  1 1 1
38 15 -44.42274709601419 7.627664706799603 -300.38701018141956 0  1 1 0
39 9 -47.78254709601419 6.623834706799603 -301.3054101814195 0  1 1 0.5
40 2 -50.19794709601419 8.565974706799603 -299.4786101814195 0  1 1 1
41 39 -53.28654709601419 9.708824706799604 -301.7918101814195 0  1 1 0
42 22 -55.75534709601419 12.372954706799604 -301.2411101814195 0  1 1 1
43 35 -57.979947096014186 11.915991706799604 -297.9383101814195 0  1 1 0
44 28 -60.998147096014186 10.002649706799604 -298.8197101814195 0  1 1 0
45 37 -59.83854709601419 8.552554706799603 -302.13901018141956 0  1 1 0
46 40 -58.604447096014184 5.272264706799603 -300.94101018141953 0  1 1 0
47 21 -61.59684709601419 5.403884706799603 -298.6811101814195 0  1 1 0
48 31 -63.80324709601419 5.602024706799603 -301.64501018141954 0  1 1 0
49 22 -62.17134709601419 2.4601247067996024 -303.5579101814195 0  1 1 1
50 27 -62.67204709601419 0.8876347067996022 -299.82881018141956 0  1 1 -1
51 30 -66.3791470960142 1.6379547067996025 -299.63731018141954 0  1 1 0
52 22 -66.87774709601419 0.3492347067996029 -303.38381018141956 0  1 1 1
53 22 -65.20514709601419 -2.7637652932003967 -302.5468101814195 0  1 1 1
54 39 -67.22214709601418 -3.6186652932003973 -299.29821018141956 0  1 1 0
55 26 -70.67994709601419 -2.1002652932003976 -301.15191018141957 0  1 1 0
56 32 -70.28964709601419 -5.135365293200396 -303.6152101814195 0  1 1 1
57 36 -69.0225470960142 -7.936065293200398 -301.73841018141957 0  1 1 0
58 37 -71.1236470960142 -9.384565293200398 -299.0878101814195 0  1 1 0
59 27 -69.21374709601419 -10.970565293200396 -296.43742018141955 0  1 1 -1
60 31 -69.73374709601418 -11.018365293200398 -292.78854018141953 0  1 1 0
61 31 -67.0165470960142 -8.720265293200397 -291.67770018141954 0  1 1 0
62 30 -65.9883470960142 -9.753265293200398 -288.4568401814195 0  1 1 0
63 22 -64.53474709601419 -12.306965293200397 -286.80875718141954 0  1 1 1
64 32 -66.18384709601419 -15.802965293200396 -285.85482018141954 0  1 1 1
65 31 -64.40384709601419 -16.560465293200394 -282.84001018141953 0  1 1 0
66 35 -64.5174470960142 -13.147665293200395 -281.6327901814195 0  1 1 0
67 34 -68.33314709601419 -13.192965293200396 -282.27429018141953 0  1 1 0
68 26 -68.94204709601419 -16.356065293200395 -280.32380018141953 0  1 1 0
69 22 -66.9455470960142 -14.351365293200397 -277.29171018141955 0  1 1 1
70 31 -69.2344470960142 -11.436465293200397 -277.5699801814195 0  1 1 0
71 40 -72.43116709601419 -13.408965293200398 -277.71194018141955 0  1 1 0
72 22 -71.35554709601419 -15.749965293200399 -274.76131018141956 0  1 1 1
73 27 -70.83794709601419 -12.499865293200395 -272.90721018141954 0  1 1 -1
74 30 -74.42876709601418 -11.362565293200396 -273.48461018141955 0  1 1 0
75 21 -75.92410709601418 -14.789365293200396 -272.75611018141956 0  1 1 0
76 26 -74.03873709601419 -15.343565293200397 -269.2540101814195 0  1 1 0
77 24 -75.30790709601419 -12.285365293200398 -267.8960101814195 0  1 1 -1
78 34 -78.89245709601418 -13.462665293200397 -268.37101018141954 0  1 1 0
79 32 -78.49436709601419 -17.249965293200397 -267.75701018141956 0  1 1 1
80 37 -76.3611070960142 -20.062365293200394 -266.2463101814195 0  1 1 0
81 24 -74.51067709601419 -22.862665293200394 -268.3851101814195 0  1 1 -1
82 31 -75.70881709601419 -22.588665293200393 -272.17121018141955 0  1 1 0
83 22 -74.88664709601419 -23.848165293200395 -275.67801018141955 0  1 1 1
84 34 -75.5650370960142 -21.724565293200392 -279.14708018141954 0  1 1 0
85 26 -75.99302709601419 -23.742265293200397 -282.1033201814195 0  1 1 0
86 36 -73.62757709601419 -22.594965293200396 -285.0015301814195 0  1 1 0
87 36 -76.57952709601419 -21.489365293200393 -286.74233418141955 0  1 1 0
88 21 -77.74664709601419 -19.2660652932004 -283.56130018141954 0  1 1 0
89 40 -74.34129709601419 -17.583165293200395 -283.34593018141953 0  1 1 0
90 33 -74.8265870960142 -16.8981652932004 -287.09211818141955 0  1 1 0
91 21 -78.41353709601418 -15.706365293200397 -286.78824018141955 0  1 1 0
92 31 -76.8821470960142 -13.113765293200396 -284.0333701814195 0  1 1 0
93 26 -74.31177709601418 -12.183965293200396 -286.36292418141954 0  1 1 0
94 27 -76.25851709601419 -11.656565293200396 -289.52788018141956 0  1 1 -1
95 21 -78.64435709601419 -9.622665293200397 -287.31870448141956 0  1 1 0
96 36 -75.72748709601419 -7.7299652932003955 -285.81778018141955 0  1 1 0
97 27 -74.37863709601419 -6.499965293200399 -289.04426018141953 0  1 1 -1
98 21 -77.90556709601418 -5.768665293200398 -290.69630018141953 0  1 1 0
99 39 -78.3801770960142 -3.8327652932003975 -287.55593118141957 0  1 1 0
100 31 -75.61770709601419 -1.5344652932003964 -287.84072018141956 0  1 1 0
101 40 -75.2388370960142 -1.3598652932003965 -291.6704801814195 0  1 1 0
102 21 -78.94065709601419 -0.22706529320039692 -292.1023501814195 0  1 1 0
103 31 -78.33120709601418 2.112834706799603 -289.19291018141956 0  1 1 0
104 34 -75.31092709601418 3.588724706799603 -291.14320018141956 0  1 1 0
105 27 -77.35455709601419 4.174604706799603 -294.17931018141957 0  1 1 -1
106 24 -79.61919709601419 6.153344706799603 -291.4845101814195 0  1 1 -1
107 37 -76.74395709601419 7.686454706799603 -289.67788018141954 0  1 1 0
108 23 -75.10703709601418 8.886174706799602 -292.9223701814195 0  1 1 0
109 31 -78.52343709601419 10.372015706799603 -294.1224101814195 0  1 1 0
110 25 -79.10011709601419 12.301004706799603 -290.69359018141955 0  1 1 0
111 21 -75.3496870960142 13.652924706799602 -291.35378018141955 0  1 1 0
112 30 -76.17477709601418 15.084974706799603 -294.72424018141953 0  1 1 0
113 29 -79.1407470960142 16.598604706799602 -293.24357018141956 0  1 1 0.5
114 21 -76.35055709601419 18.465614706799602 -290.93109018141956 0  1 1 0
115 32 -74.20614709601419 19.306094706799605 -294.01242018141954 0  1 1 1
116 22 -71.45062709601419 16.786844706799602 -293.07095018141956 0  1 1 1
117 40 -69.57704709601418 14.043834706799604 -294.79351018141955 0  1 1 0
118 37 -68.38654709601418 12.668204706799603 -291.48105018141956 0  1 1 0
119 30 -70.33724709601418 10.475357706799603 -289.0776301814195 0  1 1 0
120 33 -70.50704709601419 11.528685706799603 -285.42569018141955 0  1 1 0
121 35 -72.11859709601418 10.182208706799603 -282.2419901814195 0  1 1 0
122 32 -74.94569709601419 12.487294706799602 -282.62643018141955 0  1 1 1
123 24 -76.20841709601419 10.842570106799602 -286.0457701814195 0  1 1 -1
124 30 -76.61753709601419 7.831514706799603 -284.19370018141956 0  1 1 0
125 26 -78.64627709601419 9.086594706799604 -280.97788018141955 0  1 1 0
126 31 -80.91745709601419 11.300236706799604 -283.61957018141953 0  1 1 0
127 21 -81.53589509601419 8.115574706799602 -285.61948018141953 0  1 1 0
128 22 -82.26501109601419 5.726474706799603 -282.74974018141955 0  1 1 1
129 22 -84.83828709601418 8.442194706799603 -281.2858201814195 0  1 1 1
130 30 -86.50035709601418 9.134634706799602 -284.58752018141956 0  1 1 0
131 22 -86.56865709601419 5.373854706799603 -285.5750401814195 0  1 1 1
132 28 -88.2794870960142 4.971604706799603 -282.43772018141954 0  1 1 0
133 27 -86.12808709601418 2.2646947067996024 -280.9619501814195 0  1 1 -1
134 22 -85.64912709601418 4.848014706799603 -278.04730018141953 0  1 1 1
135 21 -87.83785709601419 5.800374706799603 -275.4014101814195 0  1 1 0
136 16 -29.623847096014188 -14.089865293200399 -281.23696018141953 0  1 1 0
137 8 -33.23884709601419 -13.867665293200398 -280.83554018141956 0  1 1 0
138 2 -33.928547096014185 -10.675865293200397 -282.4653501814195 0  1 1 1
139 8 -31.225847096014185 -9.522965293200398 -284.76248018141956 0  1 1 0
140 12 -28.34474709601419 -9.795865293200398 -286.9368521814195 0  1 1 1
141 8 -25.03484709601419 -8.658965293200398 -285.09781018141956 0  1 1 0
142 8 -25.43344709601419 -5.024465293200397 -285.3288001814195 0  1 1 0
143 12 -24.75144709601419 -1.3140652932003967 -286.35589518141956 0  1 1 1
144 8 -28.121247096014187 0.24293470679960372 -287.51885418141956 0  1 1 0
145 11 -31.04554709601419 -1.812365293200397 -288.78768018141955 0  1 1 0
146 8 -33.449347096014186 0.9817647067996038 -288.76514018141955 0  1 1 0
147 12 -36.739347096014185 1.7260747067996025 -289.95965018141953 0  1 1 1
148 8 -39.52284709601419 4.085314706799603 -288.70392018141956 0  1 1 0
149 8 -39.76134709601419 3.8504647067996034 -285.11963018141955 0  1 1 0
150 1 -42.87894709601419 5.036814706799603 -283.66675018141956 0  1 1 0
151 12 -42.98434709601419 2.0218747067996024 -281.9284301814195 0  1 1 1
152 2 -44.73754709601419 -1.4928652932003974 -282.24107018141956 0  1 1 1
153 9 -47.997047096014185 -2.888965293200396 -281.33710018141954 0  1 1 0.5
154 2 -49.51644709601419 -6.633865293200396 -280.73295018141954 0  1 1 1
155 12 -52.683247096014185 -6.253465293200398 -279.13335018141953 0  1 1 1
156 20 -54.75844709601419 -8.269365293200396 -276.78171018141956 0  1 1 0
157 11 -58.317247096014185 -8.676665293200395 -278.11513018141954 0  1 1 0
158 2 -60.83324709601419 -10.243365293200396 -275.5946101814195 0  1 1 1
159 4 -64.63234709601419 -9.542265293200396 -274.44821018141954 0  1 1 -1
160 3 -67.7755470960142 -7.431765293200398 -273.7098101814195 0  1 1 0
161 30 -68.11604709601419 -5.719565293200398 -277.13811018141956 0  1 1 0
162 26 -64.5748470960142 -4.321065293200396 -277.1161101814195 0  1 1 0
163 28 -63.37134709601419 -7.575865293200396 -278.90590018141955 0  1 1 0
164 30 -65.28224709601419 -6.759865293200397 -282.21356018141955 0  1 1 0
165 37 -62.44904709601418 -4.584765293200396 -283.68951018141956 0  1 1 0
166 32 -62.253447096014185 -1.4364652932003974 -285.12351018141953 0  1 1 1
167 35 -61.05704709601419 -1.8752652932003961 -288.78297018141956 0  1 1 0
168 21 -64.0619470960142 -4.3415652932003965 -289.12469018141957 0  1 1 0
169 30 -66.74304709601418 -2.0038652932003966 -288.07767018141953 0  1 1 0
170 22 -65.37034709601419 1.0000747067996034 -289.9405401814195 0  1 1 1
171 22 -65.42614709601419 -1.4022652932003972 -293.1696501814195 0  1 1 1
172 31 -68.81314709601419 -2.2726652932003972 -292.49574018141954 0  1 1 0
173 21 -69.92814709601419 1.6148247067996024 -291.9807501814195 0  1 1 0
174 22 -67.9874470960142 1.9937847067996035 -295.30391018141955 0  1 1 1
175 22 -70.36174709601418 -0.7149652932003967 -296.52736018141957 0  1 1 1
176 28 -72.89372709601419 1.815914706799603 -295.42218018141955 0  1 1 0
177 28 -71.44641709601419 4.416564706799603 -297.6571101814195 0  1 1 0
178 40 -69.63444709601418 6.221014706799603 -294.77174018141955 0  1 1 0
179 32 -66.53914709601419 8.269634706799604 -296.55227018141954 0  1 1 1
180 22 -65.39404709601419 10.145195706799603 -293.41487018141953 0  1 1 1
181 30 -65.56944709601419 8.527444706799603 -289.69368018141955 0  1 1 0
182 36 -65.24914709601418 10.200710706799603 -286.56345918141955 0  1 1 0
183 28 -62.71514709601419 8.466714706799603 -283.7441701814195 0  1 1 0
184 31 -65.6150470960142 8.853684706799603 -281.52904018141953 0  1 1 0
185 30 -67.67054709601419 6.421404706799603 -283.43182018141954 0  1 1 0
186 39 -66.56564709601419 2.9937447067996033 -282.73218018141955 0  1 1 0
187 27 -67.30734709601418 2.9114147067996026 -278.80405018141954 0  1 1 -1
188 27 -70.66624709601419 4.509754706799603 -279.4576101814195 0  1 1 -1
189 37 -71.29814709601419 1.869034706799603 -282.1455101814195 0  1 1 0
190 22 -70.56784709601419 -0.7251652932003978 -279.58534018141955 0  1 1 1
191 28 -73.03675709601418 0.8525347067996023 -277.12681018141956 0  1 1 0
192 40 -75.87653709601419 0.8256347067996028 -279.96377018141953 0  1 1 0
193 31 -74.97791709601418 -2.5434652932003967 -280.97781018141956 0  1 1 0
194 32 -75.1699370960142 -3.793365293200397 -277.15001018141953 0  1 1 1
195 40 -78.76774709601419 -2.566965293200397 -276.39821018141953 0  1 1 0
196 34 -79.87337709601418 -4.003965293200396 -279.59476018141953 0  1 1 0
197 31 -78.36206709601419 -7.474865293200397 -279.09091018141953 0  1 1 0
198 27 -79.14241709601419 -7.804865293200399 -275.4392101814195 0  1 1 -1
199 23 -82.8994770960142 -7.027565293200398 -276.4032101814195 0  1 1 0
200 40 -82.3328910960142 -10.041165293200399 -279.07810018141953 0  1 1 0
201 30 -80.51629409601419 -12.249465293200396 -276.9508101814195 0  1 1 0
202 22 -82.76760709601419 -11.894465293200396 -273.8378101814195 0  1 1 1
203 24 -85.99996709601419 -12.582965293200397 -275.9628101814195 0  1 1 -1
204 21 -84.26303709601419 -15.731465293200396 -277.83368018141954 0  1 1 0
205 40 -83.01289709601419 -16.840065293200396 -274.31951018141956 0  1 1 0
206 37 -86.45067709601419 -16.059465293200397 -272.8441101814195 0  1 1 0
207 39 -87.80540709601419 -18.206265293200396 -275.43271018141957 0  1 1 0
208 37 -85.05828709601418 -20.9865652932004 -274.82891018141953 0  1 1 0
209 27 -86.05060709601419 -21.292065293200395 -271.0450101814195 0  1 1 -1
210 29 -89.64189709601419 -21.137365293200396 -272.1840101814195 0  1 1 0.5
211 21 -88.99776709601419 -24.379065293200398 -274.34801018141957 0  1 1 0
212 32 -87.10288709601419 -26.230165293200393 -272.0060101814195 0  1 1 1
213 22 -83.74184709601418 -25.715865293200395 -273.4657101814195 0  1 1 1
214 32 -80.06929709601418 -24.443665293200397 -272.56611018141956 0  1 1 1
215 37 -79.29043709601419 -24.668265293200392 -276.23261018141955 0  1 1 0
216 40 -80.49424909601419 -21.559065293200398 -277.81335018141954 0  1 1 0
217 37 -81.65927509601418 -22.643265293200393 -281.47138018141953 0  1 1 0
218 21 -81.97770509601419 -20.392765293200398 -284.4213101814195 0  1 1 0
219 33 -85.48138709601419 -20.7703652932004 -284.54101018141955 0  1 1 0
220 24 -85.81287709601419 -18.799965293200394 -281.0497101814195 0  1 1 -1
221 40 -83.68541709601419 -16.147665293200397 -282.90257018141955 0  1 1 0
222 40 -86.05094709601418 -15.833365293200396 -285.68312018141955 0  1 1 0
223 39 -88.72478709601418 -15.541765293200397 -283.21865018141955 0  1 1 0
224 21 -86.64389709601419 -12.517765293200396 -281.39742018141953 0  1 1 0
225 31 -86.21379709601419 -10.762265293200398 -284.17988018141955 0  1 1 0
226 32 -89.92641709601419 -10.860965293200396 -285.58385018141956 0  1 1 1
227 22 -91.5790470960142 -9.416865293200397 -282.49465018141956 0  1 1 1
228 26 -88.4918370960142 -6.609865293200398 -282.42101018141955 0  1 1 0
229 28 -89.2909070960142 -5.752665293200396 -285.91739018141953 0  1 1 0
230 22 -85.88110709601419 -6.834665293200397 -287.6187181814195 0  1 1 1
231 37 -86.71803709601419 -9.882265293200396 -288.86786018141953 0  1 1 0
232 31 -84.12289709601419 -12.682865293200399 -289.76942018141955 0  1 1 0
233 39 -84.64057709601418 -14.616065293200398 -292.9177101814195 0  1 1 0
234 28 -82.66726709601419 -17.796765293200394 -294.2199201814195 0  1 1 0
235 34 -82.43950709601418 -19.518765293200396 -290.5405701814195 0  1 1 0
236 28 -85.84160709601419 -21.0738652932004 -290.4808001814195 0  1 1 0
237 28 -88.89782709601418 -22.73996529320039 -291.7602901814195 0  1 1 0
238 16 -132.2871470960142 10.214613706799604 -249.90551018141954 0  1 1 0
239 8 -128.20354709601418 9.833164706799604 -249.65171018141953 0  1 1 0
240 2 -125.5225470960142 8.557264706799604 -247.42481018141953 0  1 1 1
241 8 -126.00824709601419 4.858394706799603 -247.53061018141955 0  1 1 0
242 12 -125.84314709601418 1.731574706799604 -249.32791018141955 0  1 1 1
243 6 -128.6910470960142 -0.6809652932003978 -248.13591018141955 0  1 1 0
244 8 -125.85984709601419 -3.1901652932003977 -247.50211018141954 0  1 1 0
245 8 -122.49824709601418 -3.2626652932003974 -246.49771018141954 0  1 1 0
246 12 -122.36964709601419 -7.133965293200395 -245.06871018141953 0  1 1 1
247 17 -124.3788470960142 -8.529765293200397 -247.64281018141955 0  1 1 0
248 2 -123.8694470960142 -12.240965293200398 -249.17331018141954 0  1 1 1
249 1 -125.7529470960142 -15.784465293200396 -248.90351018141953 0  1 1 0
250 12 -127.77104709601419 -18.925665293200396 -248.64551018141952 0  1 1 1
251 1 -124.75144709601419 -21.442065293200393 -249.73491018141954 0  1 1 0
252 12 -121.60504709601419 -19.4871652932004 -251.54561018141953 0  1 1 1
253 17 -120.97614709601419 -19.403665293200397 -255.04471018141953 0  1 1 0
254 2 -117.42344709601419 -17.656365293200395 -256.02771018141954 0  1 1 1
255 16 -116.01294709601419 -14.284765293200396 -254.72681018141952 0  1 1 0
256 16 -112.77654709601418 -16.2384652932004 -253.50561018141954 0  1 1 0
257 2 -109.04304709601419 -17.171965293200394 -254.71141018141952 0  1 1 1
258 21 -105.7070470960142 -15.610165293200398 -255.27431018141954 0  1 1 0
259 28 -105.26704709601418 -12.815565293200399 -252.79241018141954 0  1 1 0
260 31 -106.06304709601419 -10.155565293200398 -255.63031018141953 0  1 1 0
261 26 -108.8077470960142 -7.812565293200398 -256.24731018141955 0  1 1 0
262 34 -109.26804709601419 -8.424665293200396 -259.93551018141955 0  1 1 0
263 35 -111.4189470960142 -10.411465293200395 -262.0676101814195 0  1 1 0
264 40 -109.73444709601418 -13.597365293200395 -262.57451018141956 0  1 1 0
265 28 -113.07294709601419 -15.163465293200398 -263.93321018141955 0  1 1 0
266 22 -113.33054709601419 -12.305865293200396 -266.4324101814195 0  1 1 1
267 40 -109.77644709601418 -12.746065293200397 -267.82451018141956 0  1 1 0
268 29 -110.2374470960142 -16.5426652932004 -267.88341018141955 0  1 1 0.5
269 22 -113.20164709601418 -16.2187652932004 -270.1342101814195 0  1 1 1
270 31 -111.48684709601419 -13.630065293200397 -272.1127101814195 0  1 1 0
271 31 -108.68134709601419 -16.308165293200396 -272.9992101814195 0  1 1 0
272 22 -111.37604709601419 -18.8726652932004 -273.49941018141953 0  1 1 1
273 32 -113.15074709601419 -16.740465293200394 -276.03861018141953 0  1 1 1
274 28 -110.04834709601418 -14.623465293200399 -277.5851301814195 0  1 1 0
275 23 -108.84934709601418 -17.007365293200394 -280.0901301814195 0  1 1 0
276 39 -105.85204709601419 -17.7827652932004 -278.1668301814195 0  1 1 0
277 21 -106.07704709601418 -21.621465293200394 -277.99387018141954 0  1 1 0
278 27 -107.81424709601418 -25.0952652932004 -278.09038018141956 0  1 1 -1
279 22 -107.62494709601418 -25.097765293200396 -274.22701018141953 0  1 1 1
280 40 -106.54374709601419 -22.820465293200392 -271.28241018141955 0  1 1 0
281 28 -105.30044709601418 -23.8559652932004 -267.96171018141956 0  1 1 0
282 21 -107.09064709601418 -22.151265293200396 -265.04941018141955 0  1 1 0
283 28 -103.74404709601419 -21.166565293200392 -263.60981018141956 0  1 1 0
284 21 -103.14744709601419 -18.846465293200396 -266.65451018141954 0  1 1 0
285 35 -105.83944709601418 -16.1558652932004 -265.85741018141954 0  1 1 0
286 40 -104.5799470960142 -15.811765293200397 -262.27541018141955 0  1 1 0
287 39 -101.12974709601419 -15.233365293200398 -262.97201018141953 0  1 1 0
288 31 -102.32284709601419 -12.681865293200397 -265.68411018141956 0  1 1 0
289 21 -104.96384709601419 -10.729765293200396 -263.8070101814195 0  1 1 0
290 21 -102.36234709601419 -10.472865293200398 -260.6788101814195 0  1 1 0
291 40 -100.1741470960142 -8.599165293200398 -263.49071018141956 0  1 1 0
292 31 -102.73084709601419 -6.329165293200395 -264.94221018141957 0  1 1 0
293 27 -103.75674709601418 -5.338465293200398 -261.2800101814195 0  1 1 -1
294 39 -100.12334709601419 -4.549565293200397 -260.79131018141953 0  1 1 0
295 31 -100.04334709601419 -2.4134652932003977 -263.78511018141955 0  1 1 0
296 37 -103.1570470960142 -0.6633652932003962 -262.86121018141955 0  1 1 0
297 21 -101.76514709601419 0.09053470679960363 -259.31871018141953 0  1 1 0
298 27 -98.46314709601418 0.9551447067996026 -260.50641018141954 0  1 1 -1
299 30 -99.67614709601419 3.6780047067996033 -262.63031018141953 0  1 1 0
300 31 -102.29214709601419 4.861654706799603 -259.9630101814195 0  1 1 0
301 27 -99.88294709601419 5.374324706799603 -257.1797101814195 0  1 1 -1
302 31 -97.75194709601419 7.837364706799603 -259.4476101814195 0  1 1 0
303 21 -101.2147470960142 9.253354706799604 -260.56111018141956 0  1 1 0
304 28 -102.67434709601419 9.841074706799603 -256.95701018141955 0  1 1 0
305 23 -99.3779470960142 11.401190706799603 -255.87211018141954 0  1 1 0
306 21 -99.48594709601419 13.767104706799604 -258.77321018141953 0  1 1 0
307 21 -103.23444709601418 14.654794706799603 -257.97741018141954 0  1 1 0
308 22 -102.30044709601418 15.441594706799602 -254.33431018141954 0  1 1 1
309 24 -99.65994709601419 17.956414706799602 -256.2415101814195 0  1 1 -1
310 23 -102.27794709601419 19.1771647067996 -258.64251018141954 0  1 1 0
311 32 -104.37294709601419 19.807374706799603 -255.13511018141955 0  1 1 1
312 32 -106.88324709601419 17.485364706799604 -256.7332101814195 0  1 1 1
313 37 -108.96034709601419 14.619644706799603 -255.13061018141954 0  1 1 0
314 22 -110.28074709601418 13.133794706799602 -258.53551018141957 0  1 1 1
315 30 -107.67514709601419 11.571860706799603 -261.0359101814195 0  1 1 0
316 30 -108.13584709601419 12.990604706799603 -264.45741018141956 0  1 1 0
317 35 -106.49424709601419 12.048114706799604 -267.76661018141954 0  1 1 0
318 22 -103.89114709601418 14.954124706799604 -267.33851018141957 0  1 1 1
319 29 -102.69734709601418 13.038584706799604 -263.80481018141955 0  1 1 0.5
320 31 -102.56054709601419 9.890274706799604 -265.74081018141953 0  1 1 0
321 26 -100.25684709601418 11.521453706799603 -268.4365101814195 0  1 1 0
322 31 -97.85194709601419 12.451884706799603 -265.79081018141954 0  1 1 0
323 21 -97.95084709601419 8.878844706799603 -264.1206101814195 0  1 1 0
324 40 -97.00314709601419 7.049314706799603 -267.60801018141956 0  1 1 0
325 22 -93.84164709601419 9.373974706799602 -267.75321018141955 0  1 1 1
326 23 -92.65034709601419 9.908844706799602 -264.2671101814195 0  1 1 0
327 24 -91.09743709601419 6.635504706799603 -264.19731018141954 0  1 1 -1
328 27 -88.66174709601418 5.470364706799603 -266.72221018141954 0  1 1 -1
329 27 -90.14337709601419 2.0805947067996033 -267.21161018141953 0  1 1 -1
330 31 -93.90474709601419 2.8491047067996025 -267.5839101814195 0  1 1 0
331 23 -92.4789470960142 5.610024706799603 -269.9673101814195 0  1 1 0
332 32 -90.77381709601418 2.6764947067996037 -271.86071018141956 0  1 1 1
333 31 -94.19484709601419 1.1287747067996037 -272.66981018141956 0  1 1 0
334 31 -96.51464709601419 4.166354706799603 -272.63751018141954 0  1 1 0
335 28 -94.65754709601418 7.322864706799603 -273.12001018141956 0  1 1 0
336 22 -95.85464709601419 7.257264706799603 -276.81121018141954 0  1 1 1
337 40 -99.2691470960142 5.343684706799603 -275.9906101814195 0  1 1 0
338 37 -101.81504709601418 8.193844706799602 -276.85171018141955 0  1 1 0
339 30 -103.8625470960142 9.176114706799602 -273.82701018141955 0  1 1 0
340 21 -107.30704709601419 10.774019706799603 -274.4331101814195 0  1 1 0
341 26 -106.95844709601418 14.550014706799603 -273.31611018141956 0  1 1 0
342 28 -103.68434709601419 13.562004706799604 -271.7327101814195 0  1 1 0
343 28 -101.83994709601419 16.041274706799605 -274.17551018141955 0  1 1 0
344 40 -98.24144709601418 16.369264706799605 -273.34791018141954 0  1 1 0
345 31 -96.15794709601418 17.468254706799602 -270.6412101814195 0  1 1 0
346 35 -95.0080470960142 20.809114706799605 -269.45381018141956 0  1 1 0
347 23 -93.08004709601418 23.004934706799602 -271.62521018141956 0  1 1 0
348 30 -89.64025709601418 23.158934706799602 -273.65261018141956 0  1 1 0
349 26 -87.81103709601419 26.664534706799603 -274.3446101814195 0  1 1 0
350 36 -84.25368709601419 27.0483347067996 -273.3801101814195 0  1 1 0
351 20 -80.74941109601419 27.7771347067996 -275.3896101814195 0  1 1 0
352 11 -81.90728709601419 30.1433347067996 -278.14562018141953 0  1 1 0
353 11 -82.07024709601419 33.9443347067996 -278.48687018141953 0  1 1 0
354 15 -79.29539709601418 35.651634706799605 -279.99677018141955 0  1 1 0
355 12 -76.43791709601419 34.8902347067996 -281.7467401814195 0  1 1 1
356 12 -72.90237709601419 36.3180347067996 -280.3991601814195 0  1 1 1
357 17 -73.06121709601419 36.0192347067996 -277.02771018141954 0  1 1 0
358 7 -74.00189709601419 38.3118347067996 -273.79061018141954 0  1 1 -1
359 16 -77.61306709601419 37.210734706799606 -273.98281018141955 0  1 1 0
360 16 -77.96118709601419 39.906534706799604 -276.46781018141957 0  1 1 0
361 12 -75.34904709601419 42.6016347067996 -276.80941018141954 0  1 1 1
362 16 -78.08149709601419 44.34413470679961 -278.8652101814195 0  1 1 0
363 12 -81.22045009601419 45.893034706799604 -280.3182901814195 0  1 1 1
364 16 -81.84087309601419 43.2046347067996 -277.4002401814195 0  1 1 0
365 12 -83.75610709601419 42.987434706799604 -274.4811101814195 0  1 1 1
366 1 -156.3773470960142 2.246984706799603 -278.78284018141954 0  1 1 0
367 12 -156.7417470960142 0.336234706799603 -275.4838101814195 0  1 1 1
368 16 -153.57964709601418 -1.0708652932003968 -276.24241018141953 0  1 1 0
369 1 -151.77604709601417 -0.7231652932003971 -279.64967018141954 0  1 1 0
370 15 -148.24054709601418 0.31753470679960216 -280.9075601814195 0  1 1 0
371 1 -148.4688470960142 -1.4306652932003967 -283.9670601814195 0  1 1 0
372 15 -148.2562470960142 -2.1528652932003975 -287.43894618141957 0  1 1 0
373 12 -144.7290470960142 -2.684265293200397 -288.66923018141955 0  1 1 1
374 12 -144.30204709601418 -5.943565293200399 -289.45643018141953 0  1 1 1
375 8 -146.8316470960142 -8.407565293200397 -287.6013811814195 0  1 1 0
376 16 -147.02534709601417 -11.825765293200396 -286.55505818141955 0  1 1 0
377 12 -143.9806470960142 -13.278065293200397 -288.14967218141953 0  1 1 1
378 12 -140.8847470960142 -14.961765293200395 -286.86222218141955 0  1 1 1
379 1 -140.73104709601418 -17.1684652932004 -283.63953018141956 0  1 1 0
380 20 -139.56904709601417 -19.498265293200397 -281.24051018141955 0  1 1 0
381 17 -140.7246470960142 -23.169865293200395 -282.32613018141956 0  1 1 0
382 12 -138.3241470960142 -25.9306652932004 -281.51605018141953 0  1 1 1
383 17 -134.5612470960142 -25.388265293200398 -281.24123018141955 0  1 1 0
384 6 -131.16164709601418 -25.293665293200398 -278.4447101814195 0  1 1 0
385 12 -129.8290470960142 -22.018865293200392 -279.3237601814195 0  1 1 1
386 12 -128.54934709601417 -20.888865293200396 -276.1396101814195 0  1 1 1
387 4 -131.6644470960142 -20.284365293200395 -273.78851018141955 0  1 1 -1
388 8 -132.2229470960142 -16.7517652932004 -271.6109101814195 0  1 1 0
389 12 -133.7287470960142 -13.077465293200396 -271.5821101814195 0  1 1 1
390 12 -133.7279470960142 -9.412065293200397 -272.0266101814195 0  1 1 1
391 22 -131.97674709601418 -6.225065293200396 -272.89931018141954 0  1 1 1
392 22 -129.6681470960142 -3.7344652932003974 -273.67801018141955 0  1 1 1
393 32 -127.04214709601419 -2.4925652932003963 -276.20741018141956 0  1 1 1
394 37 -123.80364709601419 -3.7385652932003968 -274.3104101814195 0  1 1 0
395 22 -121.47454709601419 -0.7198652932003977 -273.6444101814195 0  1 1 1
396 32 -120.7383470960142 1.7734847067996036 -270.95921018141956 0  1 1 1
397 27 -117.64644709601419 1.1591947067996031 -268.6308101814195 0  1 1 -1
398 36 -115.72104709601419 -1.9874652932003976 -267.91441018141956 0  1 1 0
399 39 -112.7965470960142 -2.9698652932003977 -265.4725101814195 0  1 1 0
400 21 -113.36904709601419 0.4719347067996029 -263.9286101814195 0  1 1 0
401 30 -114.95094709601419 -0.9952652932003971 -260.75751018141955 0  1 1 0
402 39 -111.74844709601419 -3.1550652932003977 -260.26901018141956 0  1 1 0
403 40 -109.8710470960142 0.06293470679960222 -261.43051018141955 0  1 1 0