LAMMPS (3 Mar 2020)
variable fname index nucl.txt
variable simname index nucl

variable a equal 8.0
variable l equal 1.0/${a}
variable l equal 1.0/8
variable Q equal 3.5*${a}
variable Q equal 3.5*8

# Initialization
units real
atom_style   hybrid ellipsoid angle charge

boundary s s s

log log.${simname}.txt
log log.nucl.txt
