#LAMMPS data file

1607 atoms
211 ellipsoids
4533 bonds
0 angles
0 dihedrals
0 impropers

42 atom types
3236 bond types
0 angle types

-150.00549381663916 150.00549381663916 xlo xhi
-150.00549381663916 150.00549381663916 ylo yhi
-150.00549381663916 150.00549381663916 zlo zhi

Atoms

1 1 28.67990854724232 31.150766646543786 -31.60189857842316 0  1 1 0
2 2 29.789908547242305 30.46076664654379 -27.981898578423163 0  1 1 1
3 17 26.889908547242328 28.24076664654379 -26.731898578423163 0  1 1 0
4 12 25.16990854724233 26.52076664654379 -29.661898578423163 0  1 1 1
5 6 26.599908547242308 25.680766646543788 -33.15189857842316 0  1 1 0
6 17 29.999908547242313 26.350766646543775 -31.49189857842316 0  1 1 0
7 1 33.47990854724233 25.800766646543792 -32.93189857842316 0  1 1 0
8 2 36.68990854724231 24.870766646543785 -30.96189857842316 0  1 1 1
9 12 38.75990854724233 27.21076664654379 -33.24189857842316 0  1 1 1
10 16 38.75990854724233 31.040766646543773 -33.67189857842316 0  1 1 0
11 17 37.61990854724232 31.69076664654378 -30.081898578423157 0  1 1 0
12 8 37.99990854724231 35.340766646543784 -29.07189857842316 0  1 1 0
13 8 38.93990854724231 36.19076664654378 -32.67189857842316 0  1 1 0
14 12 42.35990854724233 34.47076664654378 -32.42189857842316 0  1 1 1
15 1 42.96990854724231 31.27076664654379 -34.48189857842316 0  1 1 0
16 15 44.99990854724231 29.50076664654378 -31.771898578423162 0  1 1 0
17 2 43.09990854724231 27.430766646543788 -29.24189857842316 0  1 1 1
18 12 42.23990854724232 27.590766646543784 -25.53189857842316 0  1 1 1
19 6 43.93990854724231 25.170766646543797 -23.231898578423163 0  1 1 0
20 11 42.43990854724231 22.570766646543774 -20.911898578423163 0  1 1 0
21 1 42.40990854724231 23.610766646543794 -17.231898578423163 0  1 1 0
22 17 43.09990854724231 19.97076664654378 -16.011898578423157 0  1 1 0
23 12 46.73990854724232 20.26076664654377 -17.10189857842316 0  1 1 1
24 1 47.44990854724233 23.040766646543773 -14.57189857842316 0  1 1 0
25 1 47.44990854724233 23.00076664654378 -10.82189857842316 0  1 1 0
26 2 44.87990854724231 25.830766646543793 -10.421898578423153 0  1 1 1
27 12 43.12990854724231 26.600766646543775 -7.1718985784231535 0  1 1 1
28 16 39.67990854724232 25.070766646543774 -6.691898578423164 0  1 1 0
29 1 36.61990854724232 26.23076664654377 -4.6718985784231535 0  1 1 0
30 15 37.10990854724233 26.52076664654379 -0.9318985784231586 0  1 1 0
31 1 36.21990854724231 23.550766646543792 1.2981014215768454 0  1 1 0
32 17 33.25990854724233 25.48076664654377 2.8581014215768334 0  1 1 0
33 8 30.079908547242326 27.22076664654378 1.8281014215768465 0  1 1 0
34 8 29.91990854724233 30.390766646543796 -0.22189857842316485 0  1 1 0
35 20 32.73990854724232 32.570766646543774 1.0981014215768425 0  1 1 0
36 12 33.37990854724231 35.610766646543794 -1.1218985784231563 0  1 1 1
37 12 31.059908547242316 33.81076664654378 -3.561898578423154 0  1 1 1
38 15 32.64990854724232 30.73076664654377 -5.291898578423158 0  1 1 0
39 9 31.69990854724233 28.97076664654378 -8.411898578423163 0  1 1 0.5
40 2 29.17990854724232 26.76076664654377 -6.581898578423164 0  1 1 1
41 39 25.579908547242326 25.890766646543796 -7.46189857842316 0  1 1 0
42 22 22.14990854724232 26.73076664654377 -5.971898578423165 0  1 1 1
43 35 20.62990854724231 24.060766646543783 -3.531898578423153 0  1 1 0
44 28 18.509908547242333 21.48076664654377 -5.411898578423163 0  1 1 0
45 37 20.16990854724233 22.110766646543794 -8.82189857842316 0  1 1 0
46 40 23.099908547242308 19.660766646543777 -8.57189857842316 0  1 1 0
47 21 20.469908547242312 17.410766646543777 -6.871898578423156 0  1 1 0
48 31 18.44990854724233 17.50076664654378 -10.121898578423156 0  1 1 0
49 22 21.47990854724233 16.47076664654378 -12.251898578423159 0  1 1 1
50 27 22.239908547242322 13.75076664654378 -9.60189857842316 0  1 1 -1
51 30 18.639908547242328 12.420766646543797 -9.981898578423156 0  1 1 0
52 22 18.94990854724233 12.47076664654378 -13.861898578423158 0  1 1 1
53 22 22.19990854724233 10.510766646543772 -13.57189857842316 0  1 1 1
54 39 20.989908547242322 7.660766646543777 -11.271898578423162 0  1 1 0
55 26 17.599908547242308 7.390766646543796 -13.03189857842316 0  1 1 0
56 32 19.40990854724231 6.47076664654378 -16.331898578423157 0  1 1 1
57 36 22.18990854724231 4.160766646543777 -15.111898578423158 0  1 1 0
58 37 21.359908547242327 0.6207666465437853 -14.041898578423158 0  1 1 0
59 27 23.97990854724233 -0.4892333534562283 -11.511898578423157 0  1 1 -1
60 31 23.249908547242313 -1.8392333534562226 -8.07189857842316 0  1 1 0
61 31 23.969908547242312 1.1707666465437967 -5.781898578423153 0  1 1 0
62 30 24.15990854724231 -0.42923335345622604 -2.3618985784231654 0  1 1 0
63 22 27.62990854724231 -1.7692333534562295 -1.541898578423158 0  1 1 1
64 32 27.93990854724231 -5.539233353456211 -2.0818985784231643 0  1 1 1
65 31 30.339908547242317 -6.699233353456208 0.6681014215768357 0  1 1 0
66 35 28.499908547242313 -4.5192333534562295 3.1481014215768397 0  1 1 0
67 34 25.339908547242317 -6.27923335345622 1.8781014215768437 0  1 1 0
68 26 26.87990854724231 -9.789233353456211 2.3181014215768414 0  1 1 0
69 22 27.72990854724233 -8.839233353456223 5.958101421576842 0  1 1 1
70 31 24.139908547242328 -7.679233353456226 6.548101421576845 0  1 1 0
71 40 22.359908547242327 -10.639233353456206 5.138101421576835 0  1 1 0
72 22 24.549908547242325 -12.989233353456228 7.208101421576842 0  1 1 1
73 27 23.43990854724231 -10.979233353456209 10.238101421576843 0  1 1 -1
74 30 19.719908547242312 -11.26923335345623 9.42810142157684 0  1 1 0
75 21 20.12990854724231 -15.059233353456221 8.848101421576843 0  1 1 0
76 26 21.829908547242326 -15.839233353456223 12.168101421576836 0  1 1 0
77 24 18.95990854724232 -14.409233353456216 14.198101421576837 0  1 1 -1
78 34 16.66990854724233 -16.99923335345622 12.658101421576845 0  1 1 0
79 32 18.839908547242317 -20.10923335345622 12.268101421576844 0  1 1 1
80 37 22.44990854724233 -21.41923335345622 12.798101421576845 0  1 1 0
81 24 25.109908547242327 -22.719233353456218 10.328101421576847 0  1 1 -1
82 31 23.90990854724231 -21.409233353456216 6.938101421576846 0  1 1 0
83 22 25.509908547242333 -20.11923335345621 3.698101421576837 0  1 1 1
84 34 24.16990854724233 -17.959233353456213 0.7881014215768403 0  1 1 0
85 26 25.469908547242312 -18.469233353456218 -2.751898578423166 0  1 1 0
86 36 26.91990854724233 -15.239233353456228 -4.321898578423159 0  1 1 0
87 36 23.719908547242312 -15.26923335345623 -6.521898578423162 0  1 1 0
88 21 21.369908547242318 -15.469233353456218 -3.4818985784231558 0  1 1 0
89 40 22.969908547242312 -12.459233353456227 -1.8318985784231643 0  1 1 0
90 33 22.719908547242312 -10.619233353456224 -5.181898578423159 0  1 1 0
91 21 19.049908547242325 -11.74923335345622 -5.691898578423164 0  1 1 0
92 31 18.349908547242308 -10.169233353456207 -2.271898578423162 0  1 1 0
93 26 20.18990854724231 -6.989233353456228 -3.291898578423158 0  1 1 0
94 27 18.299908547242325 -6.619233353456224 -6.611898578423165 0  1 1 -1
95 21 15.089908547242317 -7.039233353456211 -4.621898578423156 0  1 1 0
96 36 16.299908547242325 -4.669233353456207 -1.8518985784231603 0  1 1 0
97 27 16.97990854724233 -1.7992333534562022 -4.251898578423166 0  1 1 -1
98 21 13.869908547242318 -2.429233353456226 -6.361898578423165 0  1 1 0
99 39 12.069908547242306 -2.459233353456227 -2.971898578423165 0  1 1 0
100 31 13.259908547242333 0.8607666465437944 -1.7118985784231597 0  1 1 0
101 40 13.139908547242328 2.6807666465437876 -5.051898578423163 0  1 1 0
102 21 9.44990854724233 1.770766646543791 -5.631898578423161 0  1 1 0
103 31 8.91990854724233 2.9107666465437774 -2.031898578423153 0  1 1 0
104 34 10.609908547242327 6.290766646543773 -2.8518985784231603 0  1 1 0
105 27 8.369908547242318 6.810766646543783 -5.9018985784231575 0  1 1 -1
106 24 5.419908547242329 6.410766646543777 -3.3918985784231666 0  1 1 -1
107 37 7.169908547242329 8.310766646543783 -0.541898578423158 0  1 1 0
108 23 7.67990854724232 11.310766646543783 -2.811898578423154 0  1 1 0
109 31 4.0599085472423155 11.110766646543794 -4.021898578423162 0  1 1 0
110 25 2.9999085472423133 11.200766646543798 -0.3718985784231563 0  1 1 0
111 21 5.189908547242311 14.300766646543792 0.19810142157683686 0  1 1 0
112 30 3.399908547242319 16.180766646543788 -2.591898578423155 0  1 1 0
113 29 0.21990854724231212 15.130766646543776 -0.8618985784231654 0  1 1 0.5
114 21 1.7599085472423326 16.97076664654378 2.1481014215768397 0  1 1 0
115 32 3.0099085472423326 19.860766646543794 -0.12189857842315632 0  1 1 1
116 22 6.67990854724232 19.26076664654377 0.35810142157683345 0  1 1 1
117 40 9.809908547242316 18.74076664654379 -1.7218985784231648 0  1 1 0
118 37 11.489908547242322 17.080766646543793 1.2981014215768454 0  1 1 0
119 30 10.799908547242325 13.460766646543789 2.3481014215768425 0  1 1 0
120 33 10.389908547242328 12.690766646543779 6.058101421576836 0  1 1 0
121 35 9.719908547242312 9.540766646543773 8.138101421576835 0  1 1 0
122 32 5.999908547242313 10.370766646543785 7.988101421576843 0  1 1 1
123 24 5.629908547242309 9.800766646543792 4.258101421576839 0  1 1 -1
124 30 7.129908547242309 6.350766646543775 4.6081014215768334 0  1 1 0
125 26 4.69990854724233 5.100766646543775 7.418101421576836 0  1 1 0
126 31 1.7099085472423212 6.530766646543782 5.488101421576843 0  1 1 0
127 21 2.92990854724232 4.680766646543788 2.3481014215768425 0  1 1 0
128 22 3.5499085472423246 1.270766646543791 4.028101421576835 0  1 1 1
129 22 0.12990854724230871 1.4007666465437865 5.838101421576837 0  1 1 1
130 30 -1.8800914527576822 2.6207666465437853 2.758101421576839 0  1 1 0
131 22 -0.1300914527576822 -0.12923335345621467 0.6781014215768408 0  1 1 1
132 28 -1.100091452757681 -2.5692333534562124 3.458101421576842 0  1 1 0
133 27 2.459908547242321 -3.929233353456226 4.168101421576836 0  1 1 -1
134 22 2.1299085472423087 -2.8892333534562056 7.798101421576845 0  1 1 1
135 21 -0.6200914527576913 -4.079233353456203 10.218101421576847 0  1 1 0
136 16 41.41990854724233 24.950766646543798 -1.4318985784231586 0  1 1 0
137 8 40.89990854724232 24.49076664654379 2.3081014215768363 0  1 1 0
138 2 38.76990854724232 27.080766646543793 4.0981014215768425 0  1 1 1
139 8 41.39990854724232 28.73076664654377 6.278101421576835 0  1 1 0
140 12 44.61990854724232 28.320766646543774 8.248101421576834 0  1 1 1
141 8 45.059908547242316 26.870766646543785 11.67810142157684 0  1 1 0
142 8 46.73990854724232 24.650766646543786 14.348101421576843 0  1 1 0
143 12 47.079908547242326 20.820766646543774 14.078101421576847 0  1 1 1
144 8 43.89990854724232 18.880766646543776 14.188101421576846 0  1 1 0
145 11 41.69990854724233 21.97076664654378 14.198101421576837 0  1 1 0
146 8 39.12990854724231 21.530766646543782 11.468101421576847 0  1 1 0
147 12 41.21990854724231 18.73076664654377 9.978101421576838 0  1 1 1
148 8 38.71990854724231 15.940766646543779 9.348101421576843 0  1 1 0
149 8 40.12990854724231 12.48076664654377 8.738101421576843 0  1 1 0
150 1 39.029908547242314 10.830766646543793 12.098101421576843 0  1 1 0
151 12 35.58990854724232 9.280766646543782 12.658101421576845 0  1 1 1
152 2 33.559908547242316 10.620766646543785 15.528101421576835 0  1 1 1
153 9 30.95990854724232 8.270766646543791 16.958101421576842 0  1 1 0.5
154 2 31.089908547242317 4.770766646543791 18.598101421576843 0  1 1 1
155 12 28.609908547242327 1.8907666465437956 18.25810142157684 0  1 1 1
156 20 26.47990854724233 3.74076664654379 15.67810142157684 0  1 1 0
157 11 26.37990854724231 3.850766646543775 11.92810142157684 0  1 1 0
158 2 28.539908547242305 0.7007666465437978 11.378101421576844 0  1 1 1
159 4 27.989908547242322 -3.1292333534562147 11.158101421576845 0  1 1 -1
160 3 24.639908547242328 -4.8492333534562135 10.668101421576836 0  1 1 0
161 30 21.87990854724231 -2.6092333534562044 9.188101421576846 0  1 1 0
162 26 23.769908547242323 0.47076664654377964 10.468101421576847 0  1 1 0
163 28 26.599908547242308 -0.3892333534562056 7.978101421576838 0  1 1 0
164 30 24.47990854724233 0.4307666465437876 4.8581014215768334 0  1 1 0
165 37 25.91990854724233 3.7107666465437887 3.8281014215768465 0  1 1 0
166 32 24.279908547242314 7.120766646543785 3.498101421576834 0  1 1 1
167 35 25.719908547242312 8.310766646543783 0.13810142157683458 0  1 1 0
168 21 24.279908547242314 5.200766646543798 -1.4618985784231597 0  1 1 0
169 30 20.87990854724231 5.780766646543782 0.1481014215768397 0  1 1 0
170 22 20.90990854724231 9.370766646543785 -1.0818985784231643 0  1 1 1
171 22 21.639908547242328 8.100766646543775 -4.611898578423165 0  1 1 1
172 31 18.869908547242318 5.460766646543789 -4.201898578423155 0  1 1 0
173 21 16.259908547242333 8.090766646543784 -3.2018985784231546 0  1 1 0
174 22 17.65990854724231 10.22076664654378 -6.061898578423154 0  1 1 1
175 22 17.089908547242317 7.180766646543788 -8.311898578423154 0  1 1 1
176 28 13.529908547242314 7.410766646543777 -6.941898578423164 0  1 1 0
177 28 13.119908547242318 11.020766646543791 -8.191898578423164 0  1 1 0
178 40 13.479908547242331 12.660766646543777 -4.681898578423159 0  1 1 0
179 32 14.899908547242319 16.22076664654378 -4.931898578423159 0  1 1 1
180 22 15.149908547242319 16.890766646543796 -1.2218985784231648 0  1 1 1
181 30 15.779908547242314 14.290766646543773 1.6081014215768334 0  1 1 0
182 36 15.479908547242331 14.860766646543794 5.378101421576844 0  1 1 0
183 28 18.45990854724232 13.820766646543774 7.558101421576836 0  1 1 0
184 31 15.899908547242319 11.770766646543791 9.548101421576845 0  1 1 0
185 30 15.499908547242313 9.440766646543779 6.528101421576835 0  1 1 0
186 39 18.509908547242333 7.140766646543796 6.778101421576835 0  1 1 0
187 27 17.809908547242316 5.320766646543774 10.068101421576841 0  1 1 -1
188 27 14.089908547242317 5.080766646543793 9.048101421576845 0  1 1 -1
189 37 15.209908547242321 3.550766646543792 5.678101421576841 0  1 1 0
190 22 17.17990854724232 0.9707666465437796 7.638101421576835 0  1 1 1
191 28 13.969908547242312 0.30076664654379215 9.628101421576844 0  1 1 0
192 40 11.66990854724233 -0.26923335345622945 6.53810142157684 0  1 1 0
193 31 14.529908547242314 -2.219233353456218 4.8281014215768465 0  1 1 0
194 32 14.889908547242328 -4.549233353456202 7.8481014215768425 0  1 1 1
195 40 11.219908547242312 -5.569233353456212 8.188101421576846 0  1 1 0
196 34 11.229908547242331 -6.299233353456202 4.438101421576846 0  1 1 0
197 31 14.499908547242313 -8.219233353456218 4.158101421576845 0  1 1 0
198 27 13.849908547242308 -10.209233353456227 7.378101421576844 0  1 1 -1
199 23 10.499908547242313 -11.329233353456203 5.928101421576841 0  1 1 0
200 40 12.19990854724233 -12.469233353456218 2.6681014215768357 0  1 1 0
201 30 15.16990854724233 -14.079233353456203 4.418101421576836 0  1 1 0
202 22 12.989908547242322 -16.05923335345622 6.938101421576846 0  1 1 1
203 24 10.959908547242321 -17.519233353456215 4.018101421576844 0  1 1 -1
204 21 14.019908547242323 -18.239233353456214 1.7981014215768454 0  1 1 0
205 40 15.589908547242317 -20.00923335345621 4.89810142157684 0  1 1 0
206 37 12.299908547242325 -21.819233353456212 5.638101421576835 0  1 1 0
207 39 12.42990854724232 -22.89923335345621 1.978101421576838 0  1 1 0
208 37 16.12990854724231 -23.99923335345622 2.2981014215768454 0  1 1 0
209 27 15.41990854724233 -26.30923335345622 5.258101421576839 0  1 1 -1
210 29 12.389908547242328 -27.53923335345621 3.3181014215768414 0  1 1 0.5
211 21 14.829908547242326 -28.41923335345622 0.45810142157684197 0  1 1 0
212 32 17.119908547242318 -30.30923335345622 2.8181014215768414 0  1 1 1
213 22 19.91990854724233 -27.63923335345622 2.428101421576841 0  1 1 1
214 32 22.049908547242325 -25.27923335345622 4.438101421576846 0  1 1 1
215 37 23.139908547242328 -23.28923335345621 1.3881014215768346 0  1 1 0
216 40 20.289908547242305 -20.89923335345621 0.43810142157684595 0  1 1 0
217 37 19.829908547242326 -20.599233353456214 -3.281898578423153 0  1 1 0
218 21 18.41990854724233 -17.929233353456212 -5.621898578423156 0  1 1 0
219 33 15.509908547242333 -20.25923335345621 -6.35189857842316 0  1 1 0
220 24 14.379908547242309 -20.16923335345622 -2.6618985784231626 0  1 1 -1
221 40 14.599908547242308 -16.379233353456215 -2.8918985784231666 0  1 1 0
222 40 12.40990854724231 -16.429233353456226 -6.051898578423163 0  1 1 0
223 39 10.079908547242326 -18.589233353456223 -3.821898578423159 0  1 1 0
224 21 10.119908547242318 -16.02923335345622 -0.9618985784231597 0  1 1 0
225 31 9.509908547242333 -13.099233353456214 -3.3318985784231643 0  1 1 0
226 32 6.5599085472423155 -14.719233353456218 -5.031898578423153 0  1 1 1
227 22 4.359908547242327 -15.50923335345621 -1.9918985784231609 0  1 1 1
228 26 5.359908547242327 -12.049233353456202 -0.6618985784231626 0  1 1 0
229 28 4.149908547242319 -10.229233353456209 -3.791898578423158 0  1 1 0
230 22 7.509908547242333 -8.709233353456227 -4.911898578423163 0  1 1 1
231 37 8.279908547242314 -11.319233353456212 -7.721898578423165 0  1 1 0
232 31 11.91990854724233 -11.77923335345622 -8.831898578423164 0  1 1 0
233 39 12.689908547242311 -12.199233353456208 -12.541898578423158 0  1 1 0
234 28 16.059908547242316 -13.309233353456221 -14.10189857842316 0  1 1 0
235 34 17.279908547242314 -15.589233353456223 -11.24189857842316 0  1 1 0
236 28 15.19990854724233 -18.719233353456218 -12.051898578423163 0  1 1 0
237 28 13.15990854724231 -20.77923335345622 -14.451898578423162 0  1 1 0
238 16 -7.330091452757671 -64.54923335345622 -7.861898578423165 0  1 1 0
239 8 -9.130091452757682 -64.74923335345622 -4.571898578423159 0  1 1 0
240 2 -8.08009145275767 -62.81923335345621 -1.541898578423158 0  1 1 1
241 8 -7.900091452757692 -64.09923335345621 2.1281014215768437 0  1 1 0
242 12 -10.770091452757669 -63.27923335345622 4.468101421576847 0  1 1 1
243 6 -10.760091452757678 -60.46923335345622 7.0781014215768465 0  1 1 0
244 8 -11.08009145275767 -60.35923335345622 10.92810142157684 0  1 1 0
245 8 -13.490091452757667 -58.43923335345622 13.278101421576835 0  1 1 0
246 12 -12.34009145275769 -54.83923335345622 13.628101421576844 0  1 1 1
247 17 -13.930091452757694 -53.56923335345621 16.838101421576837 0  1 1 0
248 2 -11.370091452757691 -51.66923335345622 18.958101421576842 0  1 1 1
249 1 -11.83009145275767 -49.14923335345621 21.828101421576847 0  1 1 0
250 12 -13.410091452757683 -45.799233353456216 20.81810142157684 0  1 1 1
251 1 -10.280091452757688 -44.049233353456216 21.998101421576834 0  1 1 0
252 12 -8.490091452757667 -45.42923335345621 18.92810142157684 0  1 1 1
253 17 -10.640091452757673 -43.409233353456216 16.418101421576836 0  1 1 0
254 2 -8.33009145275767 -41.13923335345622 14.378101421576844 0  1 1 1
255 16 -8.920091452757674 -37.799233353456216 16.168101421576836 0  1 1 0
256 16 -8.880091452757682 -39.379233353456215 19.61810142157684 0  1 1 0
257 2 -5.760091452757678 -41.32923335345622 18.588101421576837 0  1 1 1
258 21 -4.350091452757681 -37.799233353456216 17.858101421576833 0  1 1 0
259 28 -5.640091452757673 -36.05923335345622 20.998101421576834 0  1 1 0
260 31 -7.700091452757675 -33.739233353456214 18.75810142157684 0  1 1 0
261 26 -11.33009145275767 -32.67923335345621 18.848101421576843 0  1 1 0
262 34 -11.410091452757683 -31.819233353456212 15.17810142157684 0  1 1 0
263 35 -12.190091452757684 -34.05923335345622 12.17810142157684 0  1 1 0
264 40 -8.930091452757694 -35.60923335345622 10.868101421576839 0  1 1 0
265 28 -10.870091452757691 -37.82923335345622 8.408101421576845 0  1 1 0
266 22 -12.84009145275769 -34.86923335345621 6.998101421576834 0  1 1 1
267 40 -9.610091452757672 -32.86923335345621 6.468101421576847 0  1 1 0
268 29 -7.910091452757683 -35.88923335345622 4.808101421576836 0  1 1 0.5
269 22 -10.770091452757669 -35.93923335345622 2.2681014215768442 0  1 1 1
270 31 -10.420091452757674 -32.16923335345622 1.938101421576846 0  1 1 0
271 31 -6.740091452757667 -32.57923335345622 0.8581014215768334 0  1 1 0
272 22 -7.620091452757691 -35.67923335345621 -1.2318985784231558 0  1 1 1
273 32 -10.410091452757683 -34.25923335345621 -3.311898578423154 0  1 1 1
274 28 -9.260091452757678 -30.60923335345622 -3.4218985784231535 0  1 1 0
275 23 -6.80009145275767 -30.909233353456216 -6.321898578423159 0  1 1 0
276 39 -3.7200914527576856 -30.319233353456212 -4.1518985784231575 0  1 1 0
277 21 -1.6300914527576822 -33.36923335345621 -5.1718985784231535 0  1 1 0
278 27 -1.5100914527576776 -36.89923335345621 -6.71189857842316 0  1 1 -1
279 22 -1.2700914527576685 -38.30923335345622 -3.1618985784231626 0  1 1 1
280 40 -1.560091452757689 -37.28923335345621 0.4881014215768431 0  1 1 0
281 28 0.4199085472423292 -38.99923335345622 3.2981014215768454 0  1 1 0
282 21 -1.850091452757681 -39.75923335345621 6.28810142157684 0  1 1 0
283 28 0.3699085472423178 -37.80923335345622 8.728101421576838 0  1 1 0
284 21 -0.4800914527576765 -34.549233353456216 6.968101421576847 0  1 1 0
285 35 -4.290091452757679 -34.38923335345622 7.818101421576841 0  1 1 0
286 40 -3.4400914527576845 -34.97923335345621 11.498101421576834 0  1 1 0
287 39 -0.810091452757689 -32.18923335345622 11.748101421576834 0  1 1 0
288 31 -3.2300914527576765 -29.969233353456218 9.78810142157684 0  1 1 0
289 21 -6.400091452757692 -30.63923335345622 11.828101421576847 0  1 1 0
290 21 -4.370091452757691 -29.97923335345621 15.03810142157684 0  1 1 0
291 40 -3.640091452757673 -26.52923335345622 13.558101421576836 0  1 1 0
292 31 -7.1900914527576845 -25.689233353456217 12.528101421576835 0  1 1 0
293 27 -8.400091452757692 -26.589233353456223 16.03810142157684 0  1 1 -1
294 39 -5.55009145275767 -24.49923335345622 17.578101421576847 0  1 1 0
295 31 -6.580091452757671 -21.49923335345622 15.468101421576847 0  1 1 0
296 37 -10.230091452757677 -22.099233353456214 16.348101421576843 0  1 1 0
297 21 -9.32009145275768 -21.99923335345622 20.00810142157684 0  1 1 0
298 27 -7.080091452757671 -18.91923335345622 19.528101421576835 0  1 1 -1
299 30 -9.83009145275767 -16.799233353456202 18.048101421576845 0  1 1 0
300 31 -12.510091452757678 -18.14923335345621 20.348101421576843 0  1 1 0
301 27 -10.740091452757667 -17.53923335345621 23.688101421576846 0  1 1 -1
302 31 -10.420091452757674 -13.859233353456204 22.748101421576834 0  1 1 0
303 21 -14.09009145275769 -13.76923335345623 21.578101421576847 0  1 1 0
304 28 -15.430091452757694 -15.289233353456211 24.86810142157684 0  1 1 0
305 23 -13.350091452757681 -12.899233353456225 26.948101421576837 0  1 1 0
306 21 -14.770091452757669 -10.059233353456221 24.948101421576837 0  1 1 0
307 21 -18.37009145275769 -11.289233353456211 25.468101421576847 0  1 1 0
308 22 -17.84009145275769 -11.719233353456218 29.208101421576842 0  1 1 1
309 24 -16.56009145275769 -8.099233353456214 29.28810142157684 0  1 1 -1
310 23 -19.510091452757678 -6.979233353456209 27.11810142157684 0  1 1 0
311 32 -21.660091452757683 -8.76923335345623 29.808101421576836 0  1 1 1
312 32 -22.84009145275769 -11.26923335345623 27.128101421576844 0  1 1 1
313 37 -23.280091452757688 -15.039233353456211 27.238101421576843 0  1 1 0
314 22 -23.530091452757688 -16.00923335345621 23.458101421576842 0  1 1 1
315 30 -20.680091452757694 -15.24923335345622 21.03810142157684 0  1 1 0
316 30 -21.960091452757695 -13.189233353456217 18.138101421576835 0  1 1 0
317 35 -19.950091452757675 -11.939233353456217 15.068101421576841 0  1 1 0
318 22 -19.380091452757682 -8.569233353456212 16.938101421576846 0  1 1 1
319 29 -17.190091452757684 -10.51923335345623 19.498101421576834 0  1 1 0.5
320 31 -15.400091452757692 -12.219233353456218 16.628101421576844 0  1 1 0
321 26 -14.670091452757674 -8.789233353456211 15.088101421576837 0  1 1 0
322 31 -12.83009145275767 -7.799233353456202 18.298101421576845 0  1 1 0
323 21 -11.08009145275767 -11.169233353456207 18.628101421576844 0  1 1 0
324 40 -9.290091452757679 -10.669233353456207 15.208101421576842 0  1 1 0
325 22 -7.870091452757691 -7.329233353456203 16.348101421576843 0  1 1 1
326 23 -7.1900914527576845 -7.679233353456226 20.088101421576837 0  1 1 0
327 24 -4.140091452757673 -9.799233353456202 19.348101421576843 0  1 1 -1
328 27 -1.3800914527576822 -8.309233353456221 17.218101421576847 0  1 1 -1
329 27 -0.810091452757689 -11.589233353456223 15.278101421576835 0  1 1 -1
330 31 -4.500091452757687 -12.299233353456202 14.498101421576834 0  1 1 0
331 23 -4.580091452757671 -8.729233353456209 13.39810142157684 0  1 1 0
332 32 -1.7300914527576765 -9.389233353456206 10.92810142157684 0  1 1 1
333 31 -3.9500914527576754 -12.149233353456225 9.318101421576841 0  1 1 0
334 31 -7.500091452757687 -10.899233353456225 9.698101421576837 0  1 1 0
335 28 -7.560091452757689 -7.189233353456217 10.53810142157684 0  1 1 0
336 22 -9.420091452757674 -6.189233353456217 7.318101421576841 0  1 1 1
337 40 -10.83009145275767 -9.619233353456224 6.3581014215768334 0  1 1 0
338 37 -14.560091452757689 -8.849233353456214 6.0781014215768465 0  1 1 0
339 30 -16.62009145275769 -10.399233353456225 8.888101421576835 0  1 1 0
340 21 -20.34009145275769 -10.549233353456202 8.198101421576837 0  1 1 0
341 26 -22.170091452757674 -8.329233353456203 10.748101421576834 0  1 1 0
342 28 -18.81009145275769 -7.5592333534562215 12.438101421576846 0  1 1 0
343 28 -18.77009145275767 -3.909233353456216 11.378101421576844 0  1 1 0
344 40 -15.710091452757695 -2.1192333534562238 12.598101421576843 0  1 1 0
345 31 -14.240091452757667 -1.3092333534562215 16.058101421576836 0  1 1 0
346 35 -14.680091452757694 2.1407666465437956 17.748101421576834 0  1 1 0
347 23 -11.640091452757673 4.340766646543784 16.968101421576847 0  1 1 0
348 30 -11.240091452757667 8.090766646543784 16.478101421576838 0  1 1 0
349 26 -8.060091452757689 9.880766646543776 15.298101421576845 0  1 1 0
350 36 -6.450091452757675 11.98076664654377 18.11810142157684 0  1 1 0
351 20 -6.350091452757681 15.090766646543784 15.868101421576839 0  1 1 0
352 11 -10.170091452757674 15.00076664654378 15.78810142157684 0  1 1 0
353 11 -11.100091452757681 14.900766646543786 19.488101421576843 0  1 1 0
354 15 -10.440091452757684 18.290766646543773 21.14810142157684 0  1 1 0
355 12 -8.510091452757678 18.46076664654379 24.408101421576845 0  1 1 1
356 12 -10.740091452757667 16.700766646543798 26.958101421576842 0  1 1 1
357 17 -12.730091452757677 19.310766646543783 28.858101421576833 0  1 1 0
358 7 -10.290091452757679 22.110766646543794 28.17810142157684 0  1 1 -1
359 16 -11.110091452757672 22.930766646543788 24.598101421576843 0  1 1 0
360 16 -14.780091452757688 22.370766646543785 25.528101421576835 0  1 1 0
361 12 -15.480091452757677 26.060766646543783 24.92810142157684 0  1 1 1
362 16 -17.410091452757683 28.01076664654377 22.358101421576833 0  1 1 0
363 12 -16.380091452757682 31.340766646543784 20.81810142157684 0  1 1 1
364 16 -15.440091452757684 34.640766646543796 22.42810142157684 0  1 1 0
365 12 -17.760091452757678 37.590766646543784 23.098101421576843 0  1 1 1
366 1 -29.030091452757688 -47.96923335345622 1.458101421576842 0  1 1 0
367 12 -29.730091452757677 -47.69923335345622 -2.3718985784231563 0  1 1 1
368 16 -32.32009145275768 -48.769233353456215 -4.9218985784231535 0  1 1 0
369 1 -32.430091452757694 -51.989233353456214 -6.991898578423161 0  1 1 0
370 15 -30.85009145275768 -53.20923335345621 -9.111898578423165 0  1 1 0
371 1 -27.55009145275767 -52.44923335345622 -7.511898578423157 0  1 1 0
372 15 -25.400091452757692 -50.49923335345622 -7.6518985784231575 0  1 1 0
373 12 -27.32009145275768 -47.16923335345622 -7.9218985784231535 0  1 1 1
374 12 -27.34009145275769 -43.489233353456214 -6.841898578423155 0  1 1 1
375 8 -30.860091452757672 -42.88923335345622 -5.451898578423155 0  1 1 0
376 16 -33.04009145275768 -44.46923335345622 -2.811898578423154 0  1 1 0
377 12 -36.62009145275768 -43.70923335345621 -3.9118985784231626 0  1 1 1
378 12 -37.29009145275768 -47.52923335345622 -4.061898578423154 0  1 1 1
379 1 -34.720091452757686 -48.799233353456216 -1.5718985784231592 0  1 1 0
380 20 -35.60009145275768 -51.629233353456215 0.7681014215768442 0  1 1 0
381 17 -39.170091452757674 -51.92923335345621 -0.8218985784231592 0  1 1 0
382 12 -38.52009145275768 -55.519233353456215 -2.051898578423163 0  1 1 1
383 17 -42.07009145275768 -55.45923335345621 -3.501898578423166 0  1 1 0
384 6 -43.62009145275768 -53.46923335345622 -6.341898578423155 0  1 1 0
385 12 -46.560091452757675 -52.50923335345621 -4.061898578423154 0  1 1 1
386 12 -44.170091452757674 -50.57923335345622 -1.8218985784231592 0  1 1 1
387 4 -42.63009145275768 -47.159233353456216 -2.571898578423159 0  1 1 -1
388 8 -40.10009145275768 -44.88923335345622 -0.751898578423166 0  1 1 0
389 12 -38.87009145275768 -41.49923335345622 0.34810142157684254 0  1 1 1
390 12 -38.46009145275768 -38.18923335345622 -1.5718985784231592 0  1 1 1
391 22 -35.39009145275769 -37.00923335345621 -3.4218985784231535 0  1 1 1
392 22 -33.68009145275768 -33.97923335345621 -1.8018985784231631 0  1 1 1
393 32 -30.970091452757686 -31.429233353456212 -2.7118985784231597 0  1 1 1
394 37 -27.84009145275769 -32.64923335345621 -1.061898578423154 0  1 1 0
395 22 -27.680091452757694 -32.049233353456216 2.708101421576842 0  1 1 1
396 32 -25.700091452757675 -29.35923335345622 4.53810142157684 0  1 1 1
397 27 -22.210091452757695 -29.589233353456223 5.978101421576838 0  1 1 -1
398 36 -20.170091452757674 -27.36923335345621 8.358101421576833 0  1 1 0
399 39 -17.490091452757667 -27.579233353456218 10.968101421576847 0  1 1 0
400 21 -20.010091452757678 -26.019233353456215 13.438101421576846 0  1 1 0
401 30 -20.160091452757683 -29.209233353456213 15.53810142157684 0  1 1 0
402 39 -16.37009145275769 -29.05923335345622 16.098101421576843 0  1 1 0
403 40 -16.500091452757687 -25.269233353456215 16.468101421576847 0  1 1 0
404 39 -18.77009145275767 -25.72923335345621 19.518101421576844 0  1 1 0
405 32 -16.84009145275769 -28.85923335345622 20.598101421576843 0  1 1 1
406 40 -13.640091452757673 -26.719233353456218 20.938101421576846 0  1 1 0
407 31 -15.55009145275767 -23.80923335345622 22.458101421576842 0  1 1 0
408 32 -16.84009145275769 -26.24923335345622 25.188101421576846 0  1 1 1
409 26 -13.120091452757691 -26.699233353456222 26.048101421576845 0  1 1 0